# LAMMPS data file written by OVITO Basic 3.11.0

12000 atoms
2 atom types

0.0 87.72 xlo xhi
0.0 75.96774842 ylo yhi
0.0 61.0 zlo zhi
-43.86 0.0 0.0 xy xz yz

Masses

1 208.98038  # Bi
2 127.6  # Te

Atoms  # atomic

1 1 0.0 0.0 12.2
2 1 0.0 0.0 18.3
3 1 2.1925614 1.2663823662 22.36687
4 1 2.1925614 1.2663823662 28.46687
5 1 4.386e-04 2.5320050548 2.03313
6 1 4.386e-04 2.5320050548 8.13313
7 1 -2.193 3.798387421 12.2
8 1 -2.193 3.798387421 18.3
9 1 2.193 3.798387421 12.2
10 1 2.193 3.798387421 18.3
11 1 4.386 0.0 12.2
12 1 4.386 0.0 18.3
13 1 -4.386e-04 5.0647697872 22.36687
14 1 -4.386e-04 5.0647697872 28.46687
15 1 4.3855614 5.0647697872 22.36687
16 1 4.3855614 5.0647697872 28.46687
17 1 6.5785614 1.2663823662 22.36687
18 1 6.5785614 1.2663823662 28.46687
19 1 -2.1925614 6.3303924758 2.03313
20 1 -2.1925614 6.3303924758 8.13313
21 1 2.1934386 6.3303924758 2.03313
22 1 2.1934386 6.3303924758 8.13313
23 1 4.3864386 2.5320050548 2.03313
24 1 4.3864386 2.5320050548 8.13313
25 2 0.0 0.0 0.0
26 2 2.1925614 1.2663823662 10.16687
27 2 4.386e-04 2.5320050548 20.33313
28 2 -2.193 3.798387421 0.0
29 2 2.193 3.798387421 0.0
30 2 4.386 0.0 0.0
31 2 -4.386e-04 5.0647697872 10.16687
32 2 4.3855614 5.0647697872 10.16687
33 2 6.5785614 1.2663823662 10.16687
34 2 -2.1925614 6.3303924758 20.33313
35 2 2.1934386 6.3303924758 20.33313
36 2 4.3864386 2.5320050548 20.33313
37 2 0.0 0.0 6.38975
38 2 0.0 0.0 24.11025
39 2 2.1925614 1.2663823662 16.55662
40 2 2.1925614 1.2663823662 3.77712
41 2 4.386e-04 2.5320050548 26.72288
42 2 4.386e-04 2.5320050548 13.94338
43 2 -2.193 3.798387421 6.38975
44 2 -2.193 3.798387421 24.11025
45 2 2.193 3.798387421 6.38975
46 2 2.193 3.798387421 24.11025
47 2 4.386 0.0 6.38975
48 2 4.386 0.0 24.11025
49 2 -4.386e-04 5.0647697872 16.55662
50 2 -4.386e-04 5.0647697872 3.77712
51 2 4.3855614 5.0647697872 16.55662
52 2 4.3855614 5.0647697872 3.77712
53 2 6.5785614 1.2663823662 16.55662
54 2 6.5785614 1.2663823662 3.77712
55 2 -2.1925614 6.3303924758 26.72288
56 2 -2.1925614 6.3303924758 13.94338
57 2 2.1934386 6.3303924758 26.72288
58 2 2.1934386 6.3303924758 13.94338
59 2 4.3864386 2.5320050548 26.72288
60 2 4.3864386 2.5320050548 13.94338
61 1 8.772 0.0 12.2
62 1 8.772 0.0 18.3
63 1 10.9645614 1.2663823662 22.36687
64 1 10.9645614 1.2663823662 28.46687
65 1 8.7724386 2.5320050548 2.03313
66 1 8.7724386 2.5320050548 8.13313
67 1 6.579 3.798387421 12.2
68 1 6.579 3.798387421 18.3
69 1 10.965 3.798387421 12.2
70 1 10.965 3.798387421 18.3
71 1 13.158 0.0 12.2
72 1 13.158 0.0 18.3
73 1 8.7715614 5.0647697872 22.36687
74 1 8.7715614 5.0647697872 28.46687
75 1 13.1575614 5.0647697872 22.36687
76 1 13.1575614 5.0647697872 28.46687
77 1 15.3505614 1.2663823662 22.36687
78 1 15.3505614 1.2663823662 28.46687
79 1 6.5794386 6.3303924758 2.03313
80 1 6.5794386 6.3303924758 8.13313
81 1 10.9654386 6.3303924758 2.03313
82 1 10.9654386 6.3303924758 8.13313
83 1 13.1584386 2.5320050548 2.03313
84 1 13.1584386 2.5320050548 8.13313
85 2 8.772 0.0 0.0
86 2 10.9645614 1.2663823662 10.16687
87 2 8.7724386 2.5320050548 20.33313
88 2 6.579 3.798387421 0.0
89 2 10.965 3.798387421 0.0
90 2 13.158 0.0 0.0
91 2 8.7715614 5.0647697872 10.16687
92 2 13.1575614 5.0647697872 10.16687
93 2 15.3505614 1.2663823662 10.16687
94 2 6.5794386 6.3303924758 20.33313
95 2 10.9654386 6.3303924758 20.33313
96 2 13.1584386 2.5320050548 20.33313
97 2 8.772 0.0 6.38975
98 2 8.772 0.0 24.11025
99 2 10.9645614 1.2663823662 16.55662
100 2 10.9645614 1.2663823662 3.77712
101 2 8.7724386 2.5320050548 26.72288
102 2 8.7724386 2.5320050548 13.94338
103 2 6.579 3.798387421 6.38975
104 2 6.579 3.798387421 24.11025
105 2 10.965 3.798387421 6.38975
106 2 10.965 3.798387421 24.11025
107 2 13.158 0.0 6.38975
108 2 13.158 0.0 24.11025
109 2 8.7715614 5.0647697872 16.55662
110 2 8.7715614 5.0647697872 3.77712
111 2 13.1575614 5.0647697872 16.55662
112 2 13.1575614 5.0647697872 3.77712
113 2 15.3505614 1.2663823662 16.55662
114 2 15.3505614 1.2663823662 3.77712
115 2 6.5794386 6.3303924758 26.72288
116 2 6.5794386 6.3303924758 13.94338
117 2 10.9654386 6.3303924758 26.72288
118 2 10.9654386 6.3303924758 13.94338
119 2 13.1584386 2.5320050548 26.72288
120 2 13.1584386 2.5320050548 13.94338
121 1 17.544 0.0 12.2
122 1 17.544 0.0 18.3
123 1 19.7365614 1.2663823662 22.36687
124 1 19.7365614 1.2663823662 28.46687
125 1 17.5444386 2.5320050548 2.03313
126 1 17.5444386 2.5320050548 8.13313
127 1 15.351 3.798387421 12.2
128 1 15.351 3.798387421 18.3
129 1 19.737 3.798387421 12.2
130 1 19.737 3.798387421 18.3
131 1 21.93 0.0 12.2
132 1 21.93 0.0 18.3
133 1 17.5435614 5.0647697872 22.36687
134 1 17.5435614 5.0647697872 28.46687
135 1 21.9295614 5.0647697872 22.36687
136 1 21.9295614 5.0647697872 28.46687
137 1 24.1225614 1.2663823662 22.36687
138 1 24.1225614 1.2663823662 28.46687
139 1 15.3514386 6.3303924758 2.03313
140 1 15.3514386 6.3303924758 8.13313
141 1 19.7374386 6.3303924758 2.03313
142 1 19.7374386 6.3303924758 8.13313
143 1 21.9304386 2.5320050548 2.03313
144 1 21.9304386 2.5320050548 8.13313
145 2 17.544 0.0 0.0
146 2 19.7365614 1.2663823662 10.16687
147 2 17.5444386 2.5320050548 20.33313
148 2 15.351 3.798387421 0.0
149 2 19.737 3.798387421 0.0
150 2 21.93 0.0 0.0
151 2 17.5435614 5.0647697872 10.16687
152 2 21.9295614 5.0647697872 10.16687
153 2 24.1225614 1.2663823662 10.16687
154 2 15.3514386 6.3303924758 20.33313
155 2 19.7374386 6.3303924758 20.33313
156 2 21.9304386 2.5320050548 20.33313
157 2 17.544 0.0 6.38975
158 2 17.544 0.0 24.11025
159 2 19.7365614 1.2663823662 16.55662
160 2 19.7365614 1.2663823662 3.77712
161 2 17.5444386 2.5320050548 26.72288
162 2 17.5444386 2.5320050548 13.94338
163 2 15.351 3.798387421 6.38975
164 2 15.351 3.798387421 24.11025
165 2 19.737 3.798387421 6.38975
166 2 19.737 3.798387421 24.11025
167 2 21.93 0.0 6.38975
168 2 21.93 0.0 24.11025
169 2 17.5435614 5.0647697872 16.55662
170 2 17.5435614 5.0647697872 3.77712
171 2 21.9295614 5.0647697872 16.55662
172 2 21.9295614 5.0647697872 3.77712
173 2 24.1225614 1.2663823662 16.55662
174 2 24.1225614 1.2663823662 3.77712
175 2 15.3514386 6.3303924758 26.72288
176 2 15.3514386 6.3303924758 13.94338
177 2 19.7374386 6.3303924758 26.72288
178 2 19.7374386 6.3303924758 13.94338
179 2 21.9304386 2.5320050548 26.72288
180 2 21.9304386 2.5320050548 13.94338
181 1 26.316 0.0 12.2
182 1 26.316 0.0 18.3
183 1 28.5085614 1.2663823662 22.36687
184 1 28.5085614 1.2663823662 28.46687
185 1 26.3164386 2.5320050548 2.03313
186 1 26.3164386 2.5320050548 8.13313
187 1 24.123 3.798387421 12.2
188 1 24.123 3.798387421 18.3
189 1 28.509 3.798387421 12.2
190 1 28.509 3.798387421 18.3
191 1 30.702 0.0 12.2
192 1 30.702 0.0 18.3
193 1 26.3155614 5.0647697872 22.36687
194 1 26.3155614 5.0647697872 28.46687
195 1 30.7015614 5.0647697872 22.36687
196 1 30.7015614 5.0647697872 28.46687
197 1 32.8945614 1.2663823662 22.36687
198 1 32.8945614 1.2663823662 28.46687
199 1 24.1234386 6.3303924758 2.03313
200 1 24.1234386 6.3303924758 8.13313
201 1 28.5094386 6.3303924758 2.03313
202 1 28.5094386 6.3303924758 8.13313
203 1 30.7024386 2.5320050548 2.03313
204 1 30.7024386 2.5320050548 8.13313
205 2 26.316 0.0 0.0
206 2 28.5085614 1.2663823662 10.16687
207 2 26.3164386 2.5320050548 20.33313
208 2 24.123 3.798387421 0.0
209 2 28.509 3.798387421 0.0
210 2 30.702 0.0 0.0
211 2 26.3155614 5.0647697872 10.16687
212 2 30.7015614 5.0647697872 10.16687
213 2 32.8945614 1.2663823662 10.16687
214 2 24.1234386 6.3303924758 20.33313
215 2 28.5094386 6.3303924758 20.33313
216 2 30.7024386 2.5320050548 20.33313
217 2 26.316 0.0 6.38975
218 2 26.316 0.0 24.11025
219 2 28.5085614 1.2663823662 16.55662
220 2 28.5085614 1.2663823662 3.77712
221 2 26.3164386 2.5320050548 26.72288
222 2 26.3164386 2.5320050548 13.94338
223 2 24.123 3.798387421 6.38975
224 2 24.123 3.798387421 24.11025
225 2 28.509 3.798387421 6.38975
226 2 28.509 3.798387421 24.11025
227 2 30.702 0.0 6.38975
228 2 30.702 0.0 24.11025
229 2 26.3155614 5.0647697872 16.55662
230 2 26.3155614 5.0647697872 3.77712
231 2 30.7015614 5.0647697872 16.55662
232 2 30.7015614 5.0647697872 3.77712
233 2 32.8945614 1.2663823662 16.55662
234 2 32.8945614 1.2663823662 3.77712
235 2 24.1234386 6.3303924758 26.72288
236 2 24.1234386 6.3303924758 13.94338
237 2 28.5094386 6.3303924758 26.72288
238 2 28.5094386 6.3303924758 13.94338
239 2 30.7024386 2.5320050548 26.72288
240 2 30.7024386 2.5320050548 13.94338
241 1 35.088 0.0 12.2
242 1 35.088 0.0 18.3
243 1 37.2805614 1.2663823662 22.36687
244 1 37.2805614 1.2663823662 28.46687
245 1 35.0884386 2.5320050548 2.03313
246 1 35.0884386 2.5320050548 8.13313
247 1 32.895 3.798387421 12.2
248 1 32.895 3.798387421 18.3
249 1 37.281 3.798387421 12.2
250 1 37.281 3.798387421 18.3
251 1 39.474 0.0 12.2
252 1 39.474 0.0 18.3
253 1 35.0875614 5.0647697872 22.36687
254 1 35.0875614 5.0647697872 28.46687
255 1 39.4735614 5.0647697872 22.36687
256 1 39.4735614 5.0647697872 28.46687
257 1 41.6665614 1.2663823662 22.36687
258 1 41.6665614 1.2663823662 28.46687
259 1 32.8954386 6.3303924758 2.03313
260 1 32.8954386 6.3303924758 8.13313
261 1 37.2814386 6.3303924758 2.03313
262 1 37.2814386 6.3303924758 8.13313
263 1 39.4744386 2.5320050548 2.03313
264 1 39.4744386 2.5320050548 8.13313
265 2 35.088 0.0 0.0
266 2 37.2805614 1.2663823662 10.16687
267 2 35.0884386 2.5320050548 20.33313
268 2 32.895 3.798387421 0.0
269 2 37.281 3.798387421 0.0
270 2 39.474 0.0 0.0
271 2 35.0875614 5.0647697872 10.16687
272 2 39.4735614 5.0647697872 10.16687
273 2 41.6665614 1.2663823662 10.16687
274 2 32.8954386 6.3303924758 20.33313
275 2 37.2814386 6.3303924758 20.33313
276 2 39.4744386 2.5320050548 20.33313
277 2 35.088 0.0 6.38975
278 2 35.088 0.0 24.11025
279 2 37.2805614 1.2663823662 16.55662
280 2 37.2805614 1.2663823662 3.77712
281 2 35.0884386 2.5320050548 26.72288
282 2 35.0884386 2.5320050548 13.94338
283 2 32.895 3.798387421 6.38975
284 2 32.895 3.798387421 24.11025
285 2 37.281 3.798387421 6.38975
286 2 37.281 3.798387421 24.11025
287 2 39.474 0.0 6.38975
288 2 39.474 0.0 24.11025
289 2 35.0875614 5.0647697872 16.55662
290 2 35.0875614 5.0647697872 3.77712
291 2 39.4735614 5.0647697872 16.55662
292 2 39.4735614 5.0647697872 3.77712
293 2 41.6665614 1.2663823662 16.55662
294 2 41.6665614 1.2663823662 3.77712
295 2 32.8954386 6.3303924758 26.72288
296 2 32.8954386 6.3303924758 13.94338
297 2 37.2814386 6.3303924758 26.72288
298 2 37.2814386 6.3303924758 13.94338
299 2 39.4744386 2.5320050548 26.72288
300 2 39.4744386 2.5320050548 13.94338
301 1 43.86 0.0 12.2
302 1 43.86 0.0 18.3
303 1 46.0525614 1.2663823662 22.36687
304 1 46.0525614 1.2663823662 28.46687
305 1 43.8604386 2.5320050548 2.03313
306 1 43.8604386 2.5320050548 8.13313
307 1 41.667 3.798387421 12.2
308 1 41.667 3.798387421 18.3
309 1 46.053 3.798387421 12.2
310 1 46.053 3.798387421 18.3
311 1 48.246 0.0 12.2
312 1 48.246 0.0 18.3
313 1 43.8595614 5.0647697872 22.36687
314 1 43.8595614 5.0647697872 28.46687
315 1 48.2455614 5.0647697872 22.36687
316 1 48.2455614 5.0647697872 28.46687
317 1 50.4385614 1.2663823662 22.36687
318 1 50.4385614 1.2663823662 28.46687
319 1 41.6674386 6.3303924758 2.03313
320 1 41.6674386 6.3303924758 8.13313
321 1 46.0534386 6.3303924758 2.03313
322 1 46.0534386 6.3303924758 8.13313
323 1 48.2464386 2.5320050548 2.03313
324 1 48.2464386 2.5320050548 8.13313
325 2 43.86 0.0 0.0
326 2 46.0525614 1.2663823662 10.16687
327 2 43.8604386 2.5320050548 20.33313
328 2 41.667 3.798387421 0.0
329 2 46.053 3.798387421 0.0
330 2 48.246 0.0 0.0
331 2 43.8595614 5.0647697872 10.16687
332 2 48.2455614 5.0647697872 10.16687
333 2 50.4385614 1.2663823662 10.16687
334 2 41.6674386 6.3303924758 20.33313
335 2 46.0534386 6.3303924758 20.33313
336 2 48.2464386 2.5320050548 20.33313
337 2 43.86 0.0 6.38975
338 2 43.86 0.0 24.11025
339 2 46.0525614 1.2663823662 16.55662
340 2 46.0525614 1.2663823662 3.77712
341 2 43.8604386 2.5320050548 26.72288
342 2 43.8604386 2.5320050548 13.94338
343 2 41.667 3.798387421 6.38975
344 2 41.667 3.798387421 24.11025
345 2 46.053 3.798387421 6.38975
346 2 46.053 3.798387421 24.11025
347 2 48.246 0.0 6.38975
348 2 48.246 0.0 24.11025
349 2 43.8595614 5.0647697872 16.55662
350 2 43.8595614 5.0647697872 3.77712
351 2 48.2455614 5.0647697872 16.55662
352 2 48.2455614 5.0647697872 3.77712
353 2 50.4385614 1.2663823662 16.55662
354 2 50.4385614 1.2663823662 3.77712
355 2 41.6674386 6.3303924758 26.72288
356 2 41.6674386 6.3303924758 13.94338
357 2 46.0534386 6.3303924758 26.72288
358 2 46.0534386 6.3303924758 13.94338
359 2 48.2464386 2.5320050548 26.72288
360 2 48.2464386 2.5320050548 13.94338
361 1 52.632 0.0 12.2
362 1 52.632 0.0 18.3
363 1 54.8245614 1.2663823662 22.36687
364 1 54.8245614 1.2663823662 28.46687
365 1 52.6324386 2.5320050548 2.03313
366 1 52.6324386 2.5320050548 8.13313
367 1 50.439 3.798387421 12.2
368 1 50.439 3.798387421 18.3
369 1 54.825 3.798387421 12.2
370 1 54.825 3.798387421 18.3
371 1 57.018 0.0 12.2
372 1 57.018 0.0 18.3
373 1 52.6315614 5.0647697872 22.36687
374 1 52.6315614 5.0647697872 28.46687
375 1 57.0175614 5.0647697872 22.36687
376 1 57.0175614 5.0647697872 28.46687
377 1 59.2105614 1.2663823662 22.36687
378 1 59.2105614 1.2663823662 28.46687
379 1 50.4394386 6.3303924758 2.03313
380 1 50.4394386 6.3303924758 8.13313
381 1 54.8254386 6.3303924758 2.03313
382 1 54.8254386 6.3303924758 8.13313
383 1 57.0184386 2.5320050548 2.03313
384 1 57.0184386 2.5320050548 8.13313
385 2 52.632 0.0 0.0
386 2 54.8245614 1.2663823662 10.16687
387 2 52.6324386 2.5320050548 20.33313
388 2 50.439 3.798387421 0.0
389 2 54.825 3.798387421 0.0
390 2 57.018 0.0 0.0
391 2 52.6315614 5.0647697872 10.16687
392 2 57.0175614 5.0647697872 10.16687
393 2 59.2105614 1.2663823662 10.16687
394 2 50.4394386 6.3303924758 20.33313
395 2 54.8254386 6.3303924758 20.33313
396 2 57.0184386 2.5320050548 20.33313
397 2 52.632 0.0 6.38975
398 2 52.632 0.0 24.11025
399 2 54.8245614 1.2663823662 16.55662
400 2 54.8245614 1.2663823662 3.77712
401 2 52.6324386 2.5320050548 26.72288
402 2 52.6324386 2.5320050548 13.94338
403 2 50.439 3.798387421 6.38975
404 2 50.439 3.798387421 24.11025
405 2 54.825 3.798387421 6.38975
406 2 54.825 3.798387421 24.11025
407 2 57.018 0.0 6.38975
408 2 57.018 0.0 24.11025
409 2 52.6315614 5.0647697872 16.55662
410 2 52.6315614 5.0647697872 3.77712
411 2 57.0175614 5.0647697872 16.55662
412 2 57.0175614 5.0647697872 3.77712
413 2 59.2105614 1.2663823662 16.55662
414 2 59.2105614 1.2663823662 3.77712
415 2 50.4394386 6.3303924758 26.72288
416 2 50.4394386 6.3303924758 13.94338
417 2 54.8254386 6.3303924758 26.72288
418 2 54.8254386 6.3303924758 13.94338
419 2 57.0184386 2.5320050548 26.72288
420 2 57.0184386 2.5320050548 13.94338
421 1 61.404 0.0 12.2
422 1 61.404 0.0 18.3
423 1 63.5965614 1.2663823662 22.36687
424 1 63.5965614 1.2663823662 28.46687
425 1 61.4044386 2.5320050548 2.03313
426 1 61.4044386 2.5320050548 8.13313
427 1 59.211 3.798387421 12.2
428 1 59.211 3.798387421 18.3
429 1 63.597 3.798387421 12.2
430 1 63.597 3.798387421 18.3
431 1 65.79 0.0 12.2
432 1 65.79 0.0 18.3
433 1 61.4035614 5.0647697872 22.36687
434 1 61.4035614 5.0647697872 28.46687
435 1 65.7895614 5.0647697872 22.36687
436 1 65.7895614 5.0647697872 28.46687
437 1 67.9825614 1.2663823662 22.36687
438 1 67.9825614 1.2663823662 28.46687
439 1 59.2114386 6.3303924758 2.03313
440 1 59.2114386 6.3303924758 8.13313
441 1 63.5974386 6.3303924758 2.03313
442 1 63.5974386 6.3303924758 8.13313
443 1 65.7904386 2.5320050548 2.03313
444 1 65.7904386 2.5320050548 8.13313
445 2 61.404 0.0 0.0
446 2 63.5965614 1.2663823662 10.16687
447 2 61.4044386 2.5320050548 20.33313
448 2 59.211 3.798387421 0.0
449 2 63.597 3.798387421 0.0
450 2 65.79 0.0 0.0
451 2 61.4035614 5.0647697872 10.16687
452 2 65.7895614 5.0647697872 10.16687
453 2 67.9825614 1.2663823662 10.16687
454 2 59.2114386 6.3303924758 20.33313
455 2 63.5974386 6.3303924758 20.33313
456 2 65.7904386 2.5320050548 20.33313
457 2 61.404 0.0 6.38975
458 2 61.404 0.0 24.11025
459 2 63.5965614 1.2663823662 16.55662
460 2 63.5965614 1.2663823662 3.77712
461 2 61.4044386 2.5320050548 26.72288
462 2 61.4044386 2.5320050548 13.94338
463 2 59.211 3.798387421 6.38975
464 2 59.211 3.798387421 24.11025
465 2 63.597 3.798387421 6.38975
466 2 63.597 3.798387421 24.11025
467 2 65.79 0.0 6.38975
468 2 65.79 0.0 24.11025
469 2 61.4035614 5.0647697872 16.55662
470 2 61.4035614 5.0647697872 3.77712
471 2 65.7895614 5.0647697872 16.55662
472 2 65.7895614 5.0647697872 3.77712
473 2 67.9825614 1.2663823662 16.55662
474 2 67.9825614 1.2663823662 3.77712
475 2 59.2114386 6.3303924758 26.72288
476 2 59.2114386 6.3303924758 13.94338
477 2 63.5974386 6.3303924758 26.72288
478 2 63.5974386 6.3303924758 13.94338
479 2 65.7904386 2.5320050548 26.72288
480 2 65.7904386 2.5320050548 13.94338
481 1 70.176 0.0 12.2
482 1 70.176 0.0 18.3
483 1 72.3685614 1.2663823662 22.36687
484 1 72.3685614 1.2663823662 28.46687
485 1 70.1764386 2.5320050548 2.03313
486 1 70.1764386 2.5320050548 8.13313
487 1 67.983 3.798387421 12.2
488 1 67.983 3.798387421 18.3
489 1 72.369 3.798387421 12.2
490 1 72.369 3.798387421 18.3
491 1 74.562 0.0 12.2
492 1 74.562 0.0 18.3
493 1 70.1755614 5.0647697872 22.36687
494 1 70.1755614 5.0647697872 28.46687
495 1 74.5615614 5.0647697872 22.36687
496 1 74.5615614 5.0647697872 28.46687
497 1 76.7545614 1.2663823662 22.36687
498 1 76.7545614 1.2663823662 28.46687
499 1 67.9834386 6.3303924758 2.03313
500 1 67.9834386 6.3303924758 8.13313
501 1 72.3694386 6.3303924758 2.03313
502 1 72.3694386 6.3303924758 8.13313
503 1 74.5624386 2.5320050548 2.03313
504 1 74.5624386 2.5320050548 8.13313
505 2 70.176 0.0 0.0
506 2 72.3685614 1.2663823662 10.16687
507 2 70.1764386 2.5320050548 20.33313
508 2 67.983 3.798387421 0.0
509 2 72.369 3.798387421 0.0
510 2 74.562 0.0 0.0
511 2 70.1755614 5.0647697872 10.16687
512 2 74.5615614 5.0647697872 10.16687
513 2 76.7545614 1.2663823662 10.16687
514 2 67.9834386 6.3303924758 20.33313
515 2 72.3694386 6.3303924758 20.33313
516 2 74.5624386 2.5320050548 20.33313
517 2 70.176 0.0 6.38975
518 2 70.176 0.0 24.11025
519 2 72.3685614 1.2663823662 16.55662
520 2 72.3685614 1.2663823662 3.77712
521 2 70.1764386 2.5320050548 26.72288
522 2 70.1764386 2.5320050548 13.94338
523 2 67.983 3.798387421 6.38975
524 2 67.983 3.798387421 24.11025
525 2 72.369 3.798387421 6.38975
526 2 72.369 3.798387421 24.11025
527 2 74.562 0.0 6.38975
528 2 74.562 0.0 24.11025
529 2 70.1755614 5.0647697872 16.55662
530 2 70.1755614 5.0647697872 3.77712
531 2 74.5615614 5.0647697872 16.55662
532 2 74.5615614 5.0647697872 3.77712
533 2 76.7545614 1.2663823662 16.55662
534 2 76.7545614 1.2663823662 3.77712
535 2 67.9834386 6.3303924758 26.72288
536 2 67.9834386 6.3303924758 13.94338
537 2 72.3694386 6.3303924758 26.72288
538 2 72.3694386 6.3303924758 13.94338
539 2 74.5624386 2.5320050548 26.72288
540 2 74.5624386 2.5320050548 13.94338
541 1 78.948 0.0 12.2
542 1 78.948 0.0 18.3
543 1 81.1405614 1.2663823662 22.36687
544 1 81.1405614 1.2663823662 28.46687
545 1 78.9484386 2.5320050548 2.03313
546 1 78.9484386 2.5320050548 8.13313
547 1 76.755 3.798387421 12.2
548 1 76.755 3.798387421 18.3
549 1 81.141 3.798387421 12.2
550 1 81.141 3.798387421 18.3
551 1 83.334 0.0 12.2
552 1 83.334 0.0 18.3
553 1 78.9475614 5.0647697872 22.36687
554 1 78.9475614 5.0647697872 28.46687
555 1 83.3335614 5.0647697872 22.36687
556 1 83.3335614 5.0647697872 28.46687
557 1 85.5265614 1.2663823662 22.36687
558 1 85.5265614 1.2663823662 28.46687
559 1 76.7554386 6.3303924758 2.03313
560 1 76.7554386 6.3303924758 8.13313
561 1 81.1414386 6.3303924758 2.03313
562 1 81.1414386 6.3303924758 8.13313
563 1 83.3344386 2.5320050548 2.03313
564 1 83.3344386 2.5320050548 8.13313
565 2 78.948 0.0 0.0
566 2 81.1405614 1.2663823662 10.16687
567 2 78.9484386 2.5320050548 20.33313
568 2 76.755 3.798387421 0.0
569 2 81.141 3.798387421 0.0
570 2 83.334 0.0 0.0
571 2 78.9475614 5.0647697872 10.16687
572 2 83.3335614 5.0647697872 10.16687
573 2 85.5265614 1.2663823662 10.16687
574 2 76.7554386 6.3303924758 20.33313
575 2 81.1414386 6.3303924758 20.33313
576 2 83.3344386 2.5320050548 20.33313
577 2 78.948 0.0 6.38975
578 2 78.948 0.0 24.11025
579 2 81.1405614 1.2663823662 16.55662
580 2 81.1405614 1.2663823662 3.77712
581 2 78.9484386 2.5320050548 26.72288
582 2 78.9484386 2.5320050548 13.94338
583 2 76.755 3.798387421 6.38975
584 2 76.755 3.798387421 24.11025
585 2 81.141 3.798387421 6.38975
586 2 81.141 3.798387421 24.11025
587 2 83.334 0.0 6.38975
588 2 83.334 0.0 24.11025
589 2 78.9475614 5.0647697872 16.55662
590 2 78.9475614 5.0647697872 3.77712
591 2 83.3335614 5.0647697872 16.55662
592 2 83.3335614 5.0647697872 3.77712
593 2 85.5265614 1.2663823662 16.55662
594 2 85.5265614 1.2663823662 3.77712
595 2 76.7554386 6.3303924758 26.72288
596 2 76.7554386 6.3303924758 13.94338
597 2 81.1414386 6.3303924758 26.72288
598 2 81.1414386 6.3303924758 13.94338
599 2 83.3344386 2.5320050548 26.72288
600 2 83.3344386 2.5320050548 13.94338
601 1 -4.386 7.596774842 12.2
602 1 -4.386 7.596774842 18.3
603 1 -2.1934386 8.8631572082 22.36687
604 1 -2.1934386 8.8631572082 28.46687
605 1 -4.3855614 10.1287798968 2.03313
606 1 -4.3855614 10.1287798968 8.13313
607 1 -6.579 11.395162263 12.2
608 1 -6.579 11.395162263 18.3
609 1 -2.193 11.395162263 12.2
610 1 -2.193 11.395162263 18.3
611 1 1.7763568394e-15 7.596774842 12.2
612 1 1.7763568394e-15 7.596774842 18.3
613 1 -4.3864386 12.6615446292 22.36687
614 1 -4.3864386 12.6615446292 28.46687
615 1 -4.386e-04 12.6615446292 22.36687
616 1 -4.386e-04 12.6615446292 28.46687
617 1 2.1925614 8.8631572082 22.36687
618 1 2.1925614 8.8631572082 28.46687
619 1 -6.5785614 13.9271673178 2.03313
620 1 -6.5785614 13.9271673178 8.13313
621 1 -2.1925614 13.9271673178 2.03313
622 1 -2.1925614 13.9271673178 8.13313
623 1 4.386e-04 10.1287798968 2.03313
624 1 4.386e-04 10.1287798968 8.13313
625 2 -4.386 7.596774842 0.0
626 2 -2.1934386 8.8631572082 10.16687
627 2 -4.3855614 10.1287798968 20.33313
628 2 -6.579 11.395162263 0.0
629 2 -2.193 11.395162263 0.0
630 2 1.7763568394e-15 7.596774842 0.0
631 2 -4.3864386 12.6615446292 10.16687
632 2 -4.386e-04 12.6615446292 10.16687
633 2 2.1925614 8.8631572082 10.16687
634 2 -6.5785614 13.9271673178 20.33313
635 2 -2.1925614 13.9271673178 20.33313
636 2 4.386e-04 10.1287798968 20.33313
637 2 -4.386 7.596774842 6.38975
638 2 -4.386 7.596774842 24.11025
639 2 -2.1934386 8.8631572082 16.55662
640 2 -2.1934386 8.8631572082 3.77712
641 2 -4.3855614 10.1287798968 26.72288
642 2 -4.3855614 10.1287798968 13.94338
643 2 -6.579 11.395162263 6.38975
644 2 -6.579 11.395162263 24.11025
645 2 -2.193 11.395162263 6.38975
646 2 -2.193 11.395162263 24.11025
647 2 1.7763568394e-15 7.596774842 6.38975
648 2 1.7763568394e-15 7.596774842 24.11025
649 2 -4.3864386 12.6615446292 16.55662
650 2 -4.3864386 12.6615446292 3.77712
651 2 -4.386e-04 12.6615446292 16.55662
652 2 -4.386e-04 12.6615446292 3.77712
653 2 2.1925614 8.8631572082 16.55662
654 2 2.1925614 8.8631572082 3.77712
655 2 -6.5785614 13.9271673178 26.72288
656 2 -6.5785614 13.9271673178 13.94338
657 2 -2.1925614 13.9271673178 26.72288
658 2 -2.1925614 13.9271673178 13.94338
659 2 4.386e-04 10.1287798968 26.72288
660 2 4.386e-04 10.1287798968 13.94338
661 1 4.386 7.596774842 12.2
662 1 4.386 7.596774842 18.3
663 1 6.5785614 8.8631572082 22.36687
664 1 6.5785614 8.8631572082 28.46687
665 1 4.3864386 10.1287798968 2.03313
666 1 4.3864386 10.1287798968 8.13313
667 1 2.193 11.395162263 12.2
668 1 2.193 11.395162263 18.3
669 1 6.579 11.395162263 12.2
670 1 6.579 11.395162263 18.3
671 1 8.772 7.596774842 12.2
672 1 8.772 7.596774842 18.3
673 1 4.3855614 12.6615446292 22.36687
674 1 4.3855614 12.6615446292 28.46687
675 1 8.7715614 12.6615446292 22.36687
676 1 8.7715614 12.6615446292 28.46687
677 1 10.9645614 8.8631572082 22.36687
678 1 10.9645614 8.8631572082 28.46687
679 1 2.1934386 13.9271673178 2.03313
680 1 2.1934386 13.9271673178 8.13313
681 1 6.5794386 13.9271673178 2.03313
682 1 6.5794386 13.9271673178 8.13313
683 1 8.7724386 10.1287798968 2.03313
684 1 8.7724386 10.1287798968 8.13313
685 2 4.386 7.596774842 0.0
686 2 6.5785614 8.8631572082 10.16687
687 2 4.3864386 10.1287798968 20.33313
688 2 2.193 11.395162263 0.0
689 2 6.579 11.395162263 0.0
690 2 8.772 7.596774842 0.0
691 2 4.3855614 12.6615446292 10.16687
692 2 8.7715614 12.6615446292 10.16687
693 2 10.9645614 8.8631572082 10.16687
694 2 2.1934386 13.9271673178 20.33313
695 2 6.5794386 13.9271673178 20.33313
696 2 8.7724386 10.1287798968 20.33313
697 2 4.386 7.596774842 6.38975
698 2 4.386 7.596774842 24.11025
699 2 6.5785614 8.8631572082 16.55662
700 2 6.5785614 8.8631572082 3.77712
701 2 4.3864386 10.1287798968 26.72288
702 2 4.3864386 10.1287798968 13.94338
703 2 2.193 11.395162263 6.38975
704 2 2.193 11.395162263 24.11025
705 2 6.579 11.395162263 6.38975
706 2 6.579 11.395162263 24.11025
707 2 8.772 7.596774842 6.38975
708 2 8.772 7.596774842 24.11025
709 2 4.3855614 12.6615446292 16.55662
710 2 4.3855614 12.6615446292 3.77712
711 2 8.7715614 12.6615446292 16.55662
712 2 8.7715614 12.6615446292 3.77712
713 2 10.9645614 8.8631572082 16.55662
714 2 10.9645614 8.8631572082 3.77712
715 2 2.1934386 13.9271673178 26.72288
716 2 2.1934386 13.9271673178 13.94338
717 2 6.5794386 13.9271673178 26.72288
718 2 6.5794386 13.9271673178 13.94338
719 2 8.7724386 10.1287798968 26.72288
720 2 8.7724386 10.1287798968 13.94338
721 1 13.158 7.596774842 12.2
722 1 13.158 7.596774842 18.3
723 1 15.3505614 8.8631572082 22.36687
724 1 15.3505614 8.8631572082 28.46687
725 1 13.1584386 10.1287798968 2.03313
726 1 13.1584386 10.1287798968 8.13313
727 1 10.965 11.395162263 12.2
728 1 10.965 11.395162263 18.3
729 1 15.351 11.395162263 12.2
730 1 15.351 11.395162263 18.3
731 1 17.544 7.596774842 12.2
732 1 17.544 7.596774842 18.3
733 1 13.1575614 12.6615446292 22.36687
734 1 13.1575614 12.6615446292 28.46687
735 1 17.5435614 12.6615446292 22.36687
736 1 17.5435614 12.6615446292 28.46687
737 1 19.7365614 8.8631572082 22.36687
738 1 19.7365614 8.8631572082 28.46687
739 1 10.9654386 13.9271673178 2.03313
740 1 10.9654386 13.9271673178 8.13313
741 1 15.3514386 13.9271673178 2.03313
742 1 15.3514386 13.9271673178 8.13313
743 1 17.5444386 10.1287798968 2.03313
744 1 17.5444386 10.1287798968 8.13313
745 2 13.158 7.596774842 0.0
746 2 15.3505614 8.8631572082 10.16687
747 2 13.1584386 10.1287798968 20.33313
748 2 10.965 11.395162263 0.0
749 2 15.351 11.395162263 0.0
750 2 17.544 7.596774842 0.0
751 2 13.1575614 12.6615446292 10.16687
752 2 17.5435614 12.6615446292 10.16687
753 2 19.7365614 8.8631572082 10.16687
754 2 10.9654386 13.9271673178 20.33313
755 2 15.3514386 13.9271673178 20.33313
756 2 17.5444386 10.1287798968 20.33313
757 2 13.158 7.596774842 6.38975
758 2 13.158 7.596774842 24.11025
759 2 15.3505614 8.8631572082 16.55662
760 2 15.3505614 8.8631572082 3.77712
761 2 13.1584386 10.1287798968 26.72288
762 2 13.1584386 10.1287798968 13.94338
763 2 10.965 11.395162263 6.38975
764 2 10.965 11.395162263 24.11025
765 2 15.351 11.395162263 6.38975
766 2 15.351 11.395162263 24.11025
767 2 17.544 7.596774842 6.38975
768 2 17.544 7.596774842 24.11025
769 2 13.1575614 12.6615446292 16.55662
770 2 13.1575614 12.6615446292 3.77712
771 2 17.5435614 12.6615446292 16.55662
772 2 17.5435614 12.6615446292 3.77712
773 2 19.7365614 8.8631572082 16.55662
774 2 19.7365614 8.8631572082 3.77712
775 2 10.9654386 13.9271673178 26.72288
776 2 10.9654386 13.9271673178 13.94338
777 2 15.3514386 13.9271673178 26.72288
778 2 15.3514386 13.9271673178 13.94338
779 2 17.5444386 10.1287798968 26.72288
780 2 17.5444386 10.1287798968 13.94338
781 1 21.93 7.596774842 12.2
782 1 21.93 7.596774842 18.3
783 1 24.1225614 8.8631572082 22.36687
784 1 24.1225614 8.8631572082 28.46687
785 1 21.9304386 10.1287798968 2.03313
786 1 21.9304386 10.1287798968 8.13313
787 1 19.737 11.395162263 12.2
788 1 19.737 11.395162263 18.3
789 1 24.123 11.395162263 12.2
790 1 24.123 11.395162263 18.3
791 1 26.316 7.596774842 12.2
792 1 26.316 7.596774842 18.3
793 1 21.9295614 12.6615446292 22.36687
794 1 21.9295614 12.6615446292 28.46687
795 1 26.3155614 12.6615446292 22.36687
796 1 26.3155614 12.6615446292 28.46687
797 1 28.5085614 8.8631572082 22.36687
798 1 28.5085614 8.8631572082 28.46687
799 1 19.7374386 13.9271673178 2.03313
800 1 19.7374386 13.9271673178 8.13313
801 1 24.1234386 13.9271673178 2.03313
802 1 24.1234386 13.9271673178 8.13313
803 1 26.3164386 10.1287798968 2.03313
804 1 26.3164386 10.1287798968 8.13313
805 2 21.93 7.596774842 0.0
806 2 24.1225614 8.8631572082 10.16687
807 2 21.9304386 10.1287798968 20.33313
808 2 19.737 11.395162263 0.0
809 2 24.123 11.395162263 0.0
810 2 26.316 7.596774842 0.0
811 2 21.9295614 12.6615446292 10.16687
812 2 26.3155614 12.6615446292 10.16687
813 2 28.5085614 8.8631572082 10.16687
814 2 19.7374386 13.9271673178 20.33313
815 2 24.1234386 13.9271673178 20.33313
816 2 26.3164386 10.1287798968 20.33313
817 2 21.93 7.596774842 6.38975
818 2 21.93 7.596774842 24.11025
819 2 24.1225614 8.8631572082 16.55662
820 2 24.1225614 8.8631572082 3.77712
821 2 21.9304386 10.1287798968 26.72288
822 2 21.9304386 10.1287798968 13.94338
823 2 19.737 11.395162263 6.38975
824 2 19.737 11.395162263 24.11025