
15 atoms
2 atom types
   0.0000000000    4.3877817033 xlo xhi
   0.0000000000    3.7999304209 ylo yhi
   0.0000000000   30.3005495587 zlo zhi
  -2.1938914299   -0.0000000001   -0.0000000001 xy xz yz

Atoms # atomic

     1      1   -0.0000025793    2.5332882139    2.0323942113
     2      1   -0.0000025793    2.5332882139    8.0677940250
     3      1    0.0000000161    0.0000000376   12.1325824477
     4      1    0.0000000245    0.0000000327   18.1679671110
     5      1    2.1938928528    1.2666422069   22.2327555337
     6      1    2.1938928528    1.2666422068   28.2681704976
     7      2    2.1938928529    1.2666422070    3.7793269454
     8      2    0.0000000247    0.0000000427    0.0000001927
     9      2    0.0000000166    0.0000000390    6.3208461407
    10      2   -0.0000025794    2.5332882138   13.8795303320
    11      2    2.1938928528    1.2666422069   10.1001730860
    12      2    2.1938928528    1.2666422069   16.4210192268
    13      2    0.0000000254    0.0000000338   23.9797034180
    14      2   -0.0000025794    2.5332882138   20.2003764727
    15      2   -0.0000025794    2.5332882138   26.5212226133
