
15 atoms
2 atom types
   0.0000000000    4.3732525185 xlo xhi
   0.0000000000    3.7873477777 ylo yhi
   0.0000000000   29.8966884174 zlo zhi
  -2.1866268355   -0.0000000001   -0.0000000001 xy xz yz

Atoms # atomic

     1      1   -0.0000025708    2.5248997809    2.0053054272
     2      1   -0.0000025708    2.5248997809    7.9602623613
     3      1    0.0000000160    0.0000000375   11.9708732158
     4      1    0.0000000244    0.0000000326   17.9258152015
     5      1    2.1866282537    1.2624479967   21.9364260560
     6      1    2.1866282537    1.2624479966   27.8913979385
     7      2    2.1866282538    1.2624479968    3.7289541529
     8      2    0.0000000246    0.0000000426    0.0000001902
     9      2    0.0000000165    0.0000000389    6.2365986873
    10      2   -0.0000025709    2.5248997808   13.6945368899
    11      2    2.1866282537    1.2624479967    9.9655528402
    12      2    2.1866282537    1.2624479967   16.2021515276
    13      2    0.0000000253    0.0000000337   23.6600897301
    14      2   -0.0000025709    2.5248997808   19.9311355772
    15      2   -0.0000025709    2.5248997808   26.1677342644
