
15 atoms
2 atom types
   0.0000000000    4.3732525185 xlo xhi
   0.0000000000    3.7873477777 ylo yhi
   0.0000000000   30.5007229405 zlo zhi
  -2.1866268355   -0.0000000001   -0.0000000001 xy xz yz

Atoms # atomic

     1      1   -0.0000025708    2.5248997809    2.0458207408
     2      1   -0.0000025708    2.5248997809    8.1210919894
     3      1    0.0000000160    0.0000000375   12.2127334712
     4      1    0.0000000244    0.0000000326   18.2879894693
     5      1    2.1866282537    1.2624479967   22.3796309510
     6      1    2.1866282537    1.2624479966   28.4549174500
     7      2    2.1866282538    1.2624479968    3.8042941709
     8      2    0.0000000246    0.0000000426    0.0000001940
     9      2    0.0000000165    0.0000000389    6.3626033090
    10      2   -0.0000025709    2.5248997808   13.9712221516
    11      2    2.1866282537    1.2624479967   10.1668974799
    12      2    2.1866282537    1.2624479967   16.5295007889
    13      2    0.0000000253    0.0000000337   24.1381196315
    14      2   -0.0000025709    2.5248997808   20.3338254606
    15      2   -0.0000025709    2.5248997808   26.6964287695
