LAMMPS data file via write_data, version 2 Aug 2023, timestep = 1000, units = metal

4000 atoms
2 atom types

0 378.7347 xlo xhi
0 17.493 ylo yhi
0 117.6004 zlo zhi

Masses

1 208.98038
2 127.6

Atoms # atomic

9 2 0.15353492291563453 17.44954610015949 50.000162068 0 -1 0
10 2 3.8712960220112986 2.05303608033575 50.000162068 0 0 0
1009 2 0.22087146595067078 4.2818678545746485 50.000162068 0 0 0
29 2 7.5481865583777985 17.316716663924733 50.000162068 0 -1 0
1029 2 7.712366380031382 4.169693820143903 50.000162068 0 0 0
30 2 11.409569757820469 2.275931835751196 50.000162068 0 0 0
49 2 15.090390707643492 0.10387456201829293 50.03335477972313 0 0 0
1049 2 15.076570094439854 4.631979966115441 50.128400154961696 0 0 0
50 2 18.922231174492833 2.254429918131421 50.20873891437541 0 0 0
69 2 22.562750117657895 0.2557465856184627 50.10900086558612 0 0 0
70 2 26.44028183310372 2.426974470901059 50.07617131555492 0 0 0
1069 2 22.73899576409996 4.627901696279888 50.11193801014702 0 0 0
89 2 30.424944644369994 17.351318856593757 50.016497704769776 0 -1 0
1089 2 30.306911889198595 4.63104844153755 49.81101379943742 0 0 0
90 2 34.053310130276095 2.1582037058453944 50.28594132842376 0 0 0
109 2 37.634940404404766 0.12026475085949352 50.187264797236594 0 0 0
1109 2 37.82122765234817 4.547891918804503 50.229889519556124 0 0 0
110 2 41.64067920291339 2.2975299434562837 50.37222555854303 0 0 0
129 2 45.41541717079822 17.301018780230017 50.51964939792116 0 -1 0
130 2 49.383533970637856 2.2603440649711963 50.44895884769351 0 0 0
1129 2 45.53792369903752 4.2959121712924 50.36487603369092 0 0 0
149 2 52.82928383319924 17.351342350206394 50.309199579190334 0 -1 0
1149 2 53.06161095610062 4.173256366114676 50.35632142066494 0 0 0
150 2 56.853890588667774 1.8422673050869047 50.37741865669946 0 0 0
169 2 60.37813637063732 17.129259379664635 50.25963170297936 0 -1 0
1169 2 60.609563448714354 4.025087234234767 50.10811467037796 0 0 0
170 2 64.24738370237033 1.8210178937769992 50.064750602937146 0 0 0
189 2 68.1963987580799 17.20944867737835 50.056989603423126 0 -1 0
190 2 71.66603114353434 1.6833759296506663 49.97115512941585 0 0 0
1189 2 68.0814465452082 4.017941972921161 50.09370688197312 0 0 0
209 2 75.14080289629129 17.212868987151936 49.90881547861316 0 -1 0
1209 2 75.5885906542202 4.239795564724095 49.70820087397907 0 0 0
210 2 79.05411231290451 1.9838432455361097 49.723805473445196 0 0 0
229 2 82.84893969797398 0.16677891219025917 49.767967024218095 0 0 0
1229 2 83.06202245903292 4.475910650821764 49.75659818025644 0 0 0
230 2 86.94309281011756 1.9453186251390144 49.815912164175636 0 0 0
249 2 90.6853358040858 0.040540175489747345 50.159439814187664 0 0 0
1249 2 90.84928083219123 4.326229012949426 49.807036752114804 0 0 0
250 2 94.62688486499309 2.1118643162010207 49.60323024908894 0 0 0
269 2 98.63829375141908 0.004114547141182611 49.80634521079504 0 0 0
1269 2 98.21510005019101 4.228807564434253 49.59899842592052 0 0 0
270 2 102.05373442369967 2.1395831541515657 49.77889630670376 0 0 0
289 2 106.00573495953152 17.220095912232424 49.501670393046375 0 -1 0
290 2 110.15448222237754 2.2578058502222755 49.44837242304516 0 0 0
1289 2 106.36620224592045 4.294098429864694 49.47831675052574 0 0 0
309 2 113.79220205311626 17.362002115307913 49.75083162365203 0 -1 0
1309 2 113.99183367345398 4.185178484460965 49.888831496927736 0 0 0
310 2 117.79010423246427 2.274287241116765 50.15467827000349 0 0 0
329 2 121.49305853204135 0.07473646452320057 50.407924077805696 0 0 0
1329 2 121.16885556726075 4.541163062927014 50.25868416325628 0 0 0
330 2 125.23415451462913 2.191621038893725 50.0871821703045 0 0 0
349 2 128.9643345708837 17.431402612877807 50.14728986817281 0 -1 0
350 2 132.60593910321685 2.5019090046148253 50.23117908276876 0 0 0
1349 2 129.06754364822336 4.527002804232183 50.03218114019725 0 0 0
369 2 136.45562118308558 0.4866393916031929 50.338106046368644 0 0 0
1369 2 136.52403419939577 4.937249930745116 50.73078253739496 0 0 0
370 2 140.27181419211138 2.7738590202513342 50.210517117260544 0 0 0
389 2 143.88469693391946 0.3447963027206194 50.267893784625336 0 0 0
1389 2 143.73077650330828 4.901866393944456 50.48493093441918 0 0 0
390 2 147.41650368162482 2.26714525861944 50.618443953347445 0 0 0
409 2 151.3025467665419 0.1289320382873327 50.312558692143455 0 0 0
410 2 155.09477451808255 2.4317702074664598 50.1159792213028 0 0 0
1409 2 151.27083603751467 4.574864120103248 50.36429125315001 0 0 0
429 2 159.13343247918448 0.28567551918319756 50.083613627032044 0 0 0
1429 2 158.6997990684112 4.625825150017479 50.103607743598296 0 0 0
430 2 162.8514175125442 2.527697486600632 50.13309849320578 0 0 0
449 2 166.48225174574665 0.069295780311762 50.193336181587334 0 0 0
1449 2 166.66465588677724 4.843835990731206 50.36555594179918 0 0 0
450 2 170.13815160284037 2.240196871095733 50.117499381378686 0 0 0
469 2 174.02227360275714 0.21487214105648775 50.11967269684937 0 0 0
470 2 177.78596060134046 2.21971183318169 49.946087647054746 0 0 0
1469 2 174.037872734345 4.387216445353954 50.0709205178941 0 0 0
489 2 181.55135339029874 0.09208537624767565 50.162422901910006 0 0 0
1489 2 181.69283046710262 4.330225059279936 49.60720690782931 0 0 0
490 2 185.5309880860175 2.2212906710279645 50.044133826072866 0 0 0
509 2 189.23832850003163 0.20806892118131262 50.22222160261549 0 0 0
510 2 192.851063418534 2.2754932879281826 49.97241594411014 0 0 0
1509 2 189.4406940414173 4.2799535156754205 50.226698846388764 0 0 0
529 2 196.7955954901372 0.02409042584432278 49.93357811277664 0 0 0
1529 2 196.9471017172076 4.361209901590941 49.94746013799763 0 0 0
530 2 200.69997617681875 2.1600139474857913 49.99385971145702 0 0 0
549 2 204.2654243992441 0.04185365403416006 50.09626120109803 0 0 0
1549 2 204.30401655563674 4.63802597771462 49.8669564029994 0 0 0
550 2 208.13185689423509 2.2744780178370223 49.66566233024667 0 0 0
569 2 211.84741344725123 0.029112639156983894 49.69582673130339 0 0 0
570 2 215.64714484709242 2.0532051703246337 49.88446646316945 0 0 0
1569 2 211.83044706953797 4.177824202128226 49.61491469054529 0 0 0
589 2 219.45319019138705 17.464458114441936 49.833127076735146 0 -1 0
1589 2 219.5949838791931 4.356226801554859 49.655067009185 0 0 0
590 2 223.13986700416856 2.115660531437787 49.88459273100035 0 0 0
609 2 227.10581496862594 17.234833417427605 49.79055293258844 0 -1 0
1609 2 227.09351353405208 4.469047460504706 49.954238616010535 0 0 0
610 2 231.09460894006057 1.8241539891056042 49.84650014378544 0 0 0
629 2 234.96456419907284 17.164165287335134 49.89337821694962 0 -1 0
630 2 238.4151024187946 2.2632951816781754 49.703961307807106 0 0 0
1629 2 234.67795115323247 4.451727433714506 49.46989350161091 0 0 0
649 2 242.45818284123138 0.033106331232484056 49.78030017379921 0 0 0
1649 2 242.38784749715444 4.274000941565193 49.80165568364766 0 0 0
650 2 246.22136283510298 2.053735075782543 49.64493779137523 0 0 0
669 2 250.05826296127293 17.277040623845423 49.73226630481942 0 -1 0
1669 2 249.9294092008344 4.569396793607141 49.66118420876084 0 0 0
670 2 253.8737913079146 1.9698072321528834 49.724151963452286 0 0 0
689 2 257.4063454702101 0.020775591001302884 50.00467945041794 0 0 0
690 2 261.06943747808606 2.3996580204143405 49.66360339855153 0 0 0
1689 2 257.3295413876813 4.476855845778286 49.577649315517064 0 0 0
709 2 264.7714870532446 0.32044856074144307 49.82024160032125 0 0 0
1709 2 264.9806681475399 4.38328400609237 49.62791208566368 0 0 0
710 2 268.5712491098756 2.4371140373141493 49.498338242040376 0 0 0
729 2 272.310577498138 0.31995279979555136 49.461021931549695 0 0 0
1729 2 272.46239791323507 4.672667752012317 49.5657932706154 0 0 0
730 2 276.21646579990323 2.600149090548538 49.566179205518914 0 0 0
749 2 280.2021554897431 0.26362858203173384 49.45904952812284 0 0 0
1749 2 280.148957643981 5.003735908226118 49.338526488705924 0 0 0
750 2 283.95150099802356 2.5959494615560246 49.461247292273775 0 0 0
769 2 288.11250286120713 0.2698340524079483 49.743857001527545 0 0 0
1769 2 287.8983152011096 4.725124695464837 49.83021378768805 0 0 0
770 2 291.6064512757304 2.491416611084118 49.819792238219996 0 0 0
789 2 295.50142561931045 0.29127977371467895 49.62174878289461 0 0 0
790 2 299.2443393370748 1.94656256266233 49.999592648199524 0 0 0
1789 2 295.6105537262324 4.480007141197946 50.008065583953865 0 0 0
809 2 303.4273723835169 17.17303518037453 49.66559195122491 0 -1 0
1809 2 302.93611436494405 4.096748452116353 49.845553413273045 0 0 0
810 2 306.9369670668738 1.9354711181945607 50.02457956340272 0 0 0
829 2 310.92192180268165 17.345331989089352 49.596233248452144 0 -1 0
1829 2 310.5934672509808 3.9185826089945586 50.2976178967717 0 0 0
830 2 314.18220998146154 1.661294103711008 50.01643244443607 0 0 0
849 2 318.20549548580937 16.88942367686906 49.78145869197362 0 -1 0
850 2 321.9925835767404 1.7404859229303429 49.73074405120455 0 0 0
1849 2 318.17121586417124 4.077452118514884 50.026028986759975 0 0 0
869 2 325.7884565661324 17.04756661105381 50.06661553718865 0 -1 0
1869 2 325.7142525833056 3.64455902260625 50.11270452402099 0 0 0
870 2 329.8099283853803 1.7085046131189319 50.262128726778535 0 0 0
889 2 333.63471556466584 17.078713770490985 50.03575639395286 0 -1 0
1889 2 333.46812308089875 3.8912641827071783 50.36188507732002 0 0 0
890 2 337.103093789997 1.9230865699870257 50.048937260104054 0 0 0
909 2 341.0289440211273 17.182893917924634 49.72062078023382 0 -1 0
910 2 344.79304536944784 1.9964481011501565 50.10053508306234 0 0 0
1909 2 341.032290712561 4.117630314636072 49.99302575654431 0 0 0
929 2 348.37224183937747 17.227652603599292 50.025695158516506 0 -1 0
1929 2 348.39615768242317 4.227250352824087 50.04072400802667 0 0 0
930 2 352.2302365587122 1.7328363897613184 50.15567851343245 0 0 0
949 2 355.8170820916774 17.191708571915612 50.164073229724046 0 -1 0
1949 2 356.265017387645 4.251096968357248 49.990032132507494 0 0 0
950 2 359.893260389461 2.024907656195564 49.99314886150528 0 0 0
969 2 363.6724700957963 17.301621507576964 49.80203452098968 0 -1 0
970 2 367.4648792788017 2.0704702779275985 50.000162068 0 0 0
1969 2 363.6981334162161 4.280852018447462 50.07844159471113 0 0 0
989 2 371.3742574808412 17.441704641960577 50.000162068 0 -1 0
1989 2 371.2626848147603 4.377371580985904 50.000162068 0 0 0
990 2 375.10691786998734 2.2682932853379403 50.000162068 0 0 0
1010 2 3.948917737532489 6.4343365401490304 50.000162068 0 0 0
2009 2 0.17663784026824336 8.629597765573587 50.000162068 0 0 0
2010 2 3.974317303980138 10.815373744585663 50.000162068 0 0 0
2029 2 7.704855068386871 8.618895395965522 50.000162068 0 0 0
1030 2 11.399871632942851 6.687854616644453 50.000162068 0 0 0
2030 2 11.317619010342794 10.942780704265276 50.000162068 0 0 0
2049 2 15.248363438526413 9.039220604882193 50.05769285307288 0 0 0
1050 2 18.765482321855067 6.526721076801314 50.04781848420222 0 0 0
2050 2 18.964132251219326 11.02475590879972 49.9113594581254 0 0 0
1070 2 26.310095735479205 6.8064650948144685 49.92320164955649 0 0 0
2069 2 22.608250499231563 9.013063723876064 50.10611693360686 0 0 0
2070 2 26.583537619792256 11.194615323874606 50.20721237457896 0 0 0
2089 2 30.213780049159862 8.70045702190653 49.8341507258858 0 0 0
1090 2 33.94106730552994 6.610154232472484 50.00810280407087 0 0 0
2090 2 34.14515015987952 10.966503275527327 49.83481745989088 0 0 0
2109 2 37.99087967389535 8.848259954382339 50.10247499155816 0 0 0
1110 2 41.740918333426144 6.595031767371733 50.11226084520039 0 0 0
2110 2 41.84688868270567 10.974325452192977 50.23535607500989 0 0 0
1130 2 49.47414962620065 6.511971783777327 50.32440325609799 0 0 0
2129 2 45.53536785202985 8.687290601498985 50.34146917803884 0 0 0
2130 2 49.1777496264718 10.815836997588315 50.374235909866634 0 0 0
2149 2 53.03750421602506 8.418150486288058 50.174757195894095 0 0 0
1150 2 57.01821392780294 6.253561971686317 50.12278597015094 0 0 0
2150 2 56.79486041402866 10.769168801363769 49.883735886411294 0 0 0
2169 2 60.70830211042634 8.828581313120381 50.15028499612816 0 0 0
1170 2 64.12795522332107 6.218638993148994 49.87511795748673 0 0 0
2170 2 64.52467572681311 10.844610360327149 49.85623210674077 0 0 0
1190 2 71.74852107214312 6.257784632293177 49.9051186552675 0 0 0
2189 2 68.20675459627894 8.340426044926826 49.861189951873264 0 0 0
2190 2 71.75292622380874 10.366404807085281 49.77946499119183 0 0 0
2209 2 75.42998018929502 8.507172057261918 49.73735955943314 0 0 0
1210 2 79.3289978135283 6.580513782570267 49.64043902757275 0 0 0
2210 2 79.22458779316435 10.786750594581337 49.781179427947954 0 0 0
2229 2 83.24496101244691 8.493181962737747 49.722532751081566 0 0 0
1230 2 87.03834896429848 6.283980757290913 49.32953470225425 0 0 0
2230 2 87.26199278622849 10.872863591158389 49.60425690899331 0 0 0
2249 2 90.99394664301863 8.611844344262986 49.47100798183616 0 0 0
1250 2 94.52593121206195 6.5539945711029155 49.53921603476779 0 0 0
2250 2 94.67283743847618 10.63045337811603 49.39803615980231 0 0 0
2269 2 98.40249640394661 8.61572739335912 49.615074634245964 0 0 0
1270 2 102.18388776914472 6.465513316383893 49.50769878459904 0 0 0
2270 2 102.50272807627243 10.731909844078645 49.154121135175934 0 0 0
1290 2 110.28507281165908 6.549824366098057 49.61786668963719 0 0 0
2289 2 106.3184209988063 8.64633158792786 49.533156362392376 0 0 0
2290 2 110.14205954353588 10.759682262396726 49.80095322834068 0 0 0
2309 2 113.94376472452299 8.765333124750889 49.99717055034224 0 0 0
1310 2 117.58811988576286 6.776095857752068 49.93546396663572 0 0 0
2310 2 117.55746850454805 10.979891535364303 49.79000138803053 0 0 0
2329 2 121.35220048361545 8.940593261941833 49.86432281467319 0 0 0
1330 2 125.04559072174804 6.4487343537605035 50.387550876385504 0 0 0
2330 2 125.19036461912911 10.841951723998239 50.251191999654175 0 0 0
1350 2 132.9763217557751 7.008710190738196 50.19306559391562 0 0 0
2349 2 129.140628374955 8.942764778962461 50.20314633339693 0 0 0
2350 2 132.65620360242377 11.429813592788264 50.33637192384021 0 0 0
2369 2 136.5307974242296 9.222494476067554 50.837806638634845 0 0 0
1370 2 139.82347330419051 7.043183907884401 50.53762417170674 0 0 0
2370 2 140.12350810209256 11.376088794910833 50.38649822016639 0 0 0
2389 2 143.79764283910814 9.22933645576598 50.29079151773058 0 0 0
1390 2 147.382985238665 6.76969680652099 50.21246843552837 0 0 0
2390 2 148.0820296902504 11.278143055329638 50.360070003956345 0 0 0
1410 2 155.00610799736637 6.590875777619898 50.11245069731403 0 0 0
2409 2 151.37792331613238 8.655291393318327 50.15201289270371 0 0 0
2410 2 155.23347886053992 10.78826574267813 50.12993754049843 0 0 0
2429 2 158.83193422772766 8.753159571866602 49.950657793148316 0 0 0
1430 2 162.63240436435964 6.7297300065331225 49.8930507289245 0 0 0
2430 2 162.83172732971488 11.070288901365135 49.73494576273937 0 0 0
2449 2 166.3220701409114 8.895785673484555 49.91638941684194 0 0 0
1450 2 170.18735799803346 6.688522460563657 50.168546143966154 0 0 0
2450 2 170.37556672995964 10.77925203786322 49.94840541402116 0 0 0
1470 2 178.02064789088402 6.544000451814768 49.976781355191335 0 0 0
2469 2 173.93025266479367 8.83319453468516 49.82419276841438 0 0 0
2470 2 177.88127262950945 10.720716262104807 49.84894082012652 0 0 0
2489 2 181.75118090988494 8.793448764746527 49.748734075726716 0 0 0
1490 2 185.69375691240614 6.8666954619230545 49.81766866640244 0 0 0
2490 2 185.71830340137177 10.959491407718904 49.890479150124605 0 0 0
1510 2 193.23119885059526 6.536337887777383 49.55397475462702 0 0 0
2509 2 189.43103396144662 8.665810433153583 49.67921929149729 0 0 0
2510 2 193.41716900634935 10.90610792936321 49.83381443887193 0 0 0
2529 2 197.03205361388598 8.880216903716804 50.00085615802478 0 0 0
1530 2 200.6351783815983 6.554069462255157 49.9404751845152 0 0 0
2530 2 200.7520246534693 11.046242123136606 49.882600633909036 0 0 0
2549 2 204.46058148887738 8.910698052738653 49.626761986343574 0 0 0
1550 2 208.33151639406486 6.3472413400690195 49.85561907802059 0 0 0
2550 2 208.0127622346016 10.804548777466353 50.018741924619924 0 0 0
1570 2 215.4924551972652 6.527974736072722 49.737433708000864 0 0 0
2569 2 211.65583622419453 8.717747522148478 49.831728415142734 0 0 0
2570 2 215.24122630122673 10.751362406150747 49.685683750914585 0 0 0
2589 2 219.15284574409708 8.883544808429248 49.53694926916814 0 0 0
1590 2 223.1422290396249 6.796386528002394 49.663588618007374 0 0 0
2590 2 223.09848775841553 11.000875564934654 49.63648685745677 0 0 0
2609 2 227.11050327816355 8.871459729584604 49.74351191640883 0 0 0
1610 2 230.78880890908593 6.498738923186874 49.47649942663305 0 0 0
2610 2 230.88771433251839 10.876367847941651 49.78439724588072 0 0 0
1630 2 238.69077462896686 6.588124576463981 49.7110378786459 0 0 0
2629 2 234.7767323277978 8.61755675747087 49.700805480921275 0 0 0
2630 2 238.6213561126225 10.885395230570476 49.82075191202416 0 0 0
2649 2 242.31712838349495 8.559733395426337 49.47159911098203 0 0 0
1650 2 245.90688723038338 6.574648426662655 49.72324503690972 0 0 0
2650 2 246.08702367479353 10.941458633977499 49.465839559247215 0 0 0
2669 2 249.85784820783002 8.818364924404902 49.77910351734128 0 0 0
1670 2 253.67428938584342 6.604404301298798 49.73298780390357 0 0 0
2670 2 253.6745102046605 10.93543608680629 49.767277578965285 0 0 0
1690 2 261.12151461448985 6.809203461395058 49.64536410212529 0 0 0
2689 2 257.3707062977215 9.01326722845511 49.87444914418056 0 0 0
2690 2 261.20511866993144 11.037315337603875 49.890030948656396 0 0 0
2709 2 264.84761737090344 8.80092259731359 49.761782044257586 0 0 0
1710 2 268.7075464411815 6.740312812042087 49.791143859175364 0 0 0
2710 2 268.4124590879629 11.297115811824954 49.76140707835464 0 0 0
2729 2 272.3728474051659 9.080893659263046 49.62369727751405 0 0 0
1730 2 276.3221623227671 6.988800637617434 49.570039786694124 0 0 0
2730 2 276.2035133806615 11.029675862057143 49.57329062634656 0 0 0
2749 2 279.9064504955566 9.200153015486238 49.64516933031868 0 0 0
1750 2 283.9821157092029 7.240239412896627 49.595266614296264 0 0 0
2750 2 284.02561646682375 11.444932915474151 49.53476589969952 0 0 0
2769 2 287.9204951082596 9.11786196869535 49.68892146519719 0 0 0
1770 2 291.6888743102903 6.863434748585599 49.559022008389285 0 0 0
2770 2 291.81000635451846 11.444334953977698 49.48065759135607 0 0 0
1790 2 299.5487185638862 6.691147876575193 49.92787025462424 0 0 0
2789 2 295.6877646581162 8.820721777490991 49.8294184840722 0 0 0
2790 2 299.2465939349024 10.790294194706576 49.508922467853736 0 0 0
2809 2 303.18637572878913 8.812562254093 49.67753636765333 0 0 0
1810 2 306.81010132849985 6.017196092292328 49.77491524257089 0 0 0
2810 2 307.0005205991624 10.563754812908142 50.01955382892329 0 0 0
2829 2 310.47589596060834 8.284369100003257 50.1700586312481 0 0 0
1830 2 314.563725369003 6.3537245621152145 50.290335888575974 0 0 0
2830 2 314.4070751631544 10.333422185635412 50.366743623574045 0 0 0
1850 2 321.7345950408862 6.2897556509725305 50.154574752278876 0 0 0
2849 2 318.05489075207635 8.257380725044479 50.22531697517974 0 0 0
2850 2 321.95120047009766 10.559737250651201 50.07930269354878 0 0 0
2869 2 325.36788206886837 8.214878560858764 50.34770806084405 0 0 0
1870 2 329.36489629546725 5.9632232796271065 50.230012181493926 0 0 0
2870 2 329.5472641604385 10.658941702244796 50.12796830140878 0 0 0
2889 2 333.28330739046294 8.265066315816298 50.27415552907088 0 0 0
1890 2 337.1326229495479 6.278958936582171 50.19026355238966 0 0 0
2890 2 336.80107989079204 10.395789917741114 50.063596647826365 0 0 0
1910 2 344.78909433240324 6.484095418813146 50.26560081428263 0 0 0
2909 2 340.9046567635557 8.424068566156741 49.97864980127412 0 0 0
2910 2 344.7742676804271 10.64185200889818 50.12886707609487 0 0 0
2929 2 348.2997624086881 8.570283399059182 50.10228123509656 0 0 0
1930 2 352.2009278653653 6.261273924915659 49.85977600652103 0 0 0
2930 2 352.29599685704676 10.851531174281668 49.99606056128105 0 0 0
2949 2 356.1786898343135 8.593745078796491 49.89864926867813 0 0 0
1950 2 359.8889369932729 6.433483451368609 50.145251044208834 0 0 0
2950 2 360.0582054831671 10.919694757801903 49.754202087794624 0 0 0
1970 2 367.47799502304235 6.538239767310613 50.000162068 0 0 0
2969 2 363.9650048065975 8.62396058723334 50.19861247036289 0 0 0
2970 2 367.46705054219865 10.816219902384164 50.000162068 0 0 0
2989 2 371.3922321227797 8.72420811902318 50.000162068 0 0 0
1990 2 375.12306814435146 6.474832278434836 50.000162068 0 0 0
2990 2 375.19110660928817 10.850576828706126 50.000162068 0 0 0
3009 2 0.24894384479369633 13.028634431435039 50.000162068 0 0 0
3010 2 3.8142236293147036 15.170618607929667 50.000162068 0 0 0
3029 2 7.662032457892646 13.024758951441228 50.000162068 0 0 0
3030 2 11.277017348733166 15.174252849290026 50.000162068 0 0 0
3049 2 15.033114432661195 13.13341096487419 50.01710712584114 0 0 0
3050 2 18.953011374381823 15.362638443579176 49.99074110200213 0 0 0
3069 2 22.78693956970562 13.42344627070832 49.970003287594025 0 0 0
3070 2 26.439901474910418 15.633900147162008 49.93820389780407 0 0 0
3089 2 30.229593979639983 13.063123705603077 49.886712409613416 0 0 0
3090 2 34.258293088809125 15.237598327221816 50.149009488035574 0 0 0
3109 2 37.95218608047183 12.943537688776697 50.11130587696455 0 0 0
3110 2 41.590423776584004 15.43346610131615 50.33869622617651 0 0 0
3129 2 45.22485613531829 13.067198083432057 50.28890978934582 0 0 0
3130 2 48.94135158737265 15.364516848812233 50.322171799975116 0 0 0
3149 2 52.845547241550506 13.10297934026645 50.33628504434614 0 0 0
3150 2 56.62789788576974 14.896728550826175 50.38591271422406 0 0 0
3169 2 60.56776006269926 12.964911760014019 50.258180339343404 0 0 0
3170 2 64.39630855441378 15.062589445675576 50.150535547698134 0 0 0
3189 2 68.07200430833291 12.723754563207036 49.8401824681346 0 0 0
3190 2 71.58615793486483 15.041989523473173 49.99008273699262 0 0 0
3209 2 75.39035237809938 12.942814457417725 49.97024891008154 0 0 0
3210 2 79.18542095269486 15.206648421787188 49.91312674248006 0 0 0
3229 2 83.0872715904339 13.135582664704671 49.80784532206517 0 0 0
3230 2 87.22821993282076 15.338669970799392 49.72679804105275 0 0 0
3249 2 90.66838763063207 13.025499646082098 49.797774424074056 0 0 0
3250 2 94.64523690224722 15.054700917348303 49.774795305074036 0 0 0
3269 2 98.96225513219775 12.672991901470484 49.447477966906455 0 0 0
3270 2 102.5568023469701 15.242948901966937 49.44818866446947 0 0 0
3289 2 106.30927666204951 12.804686183517802 49.63244551197453 0 0 0
3290 2 110.1426237897614 15.202988688442083 49.716125553454525 0 0 0
3309 2 113.76435846497253 12.850091642556292 49.82553720210926 0 0 0
3310 2 117.8504575366459 15.517429522237538 50.16194279654731 0 0 0
3329 2 121.48372116213758 13.247420658056889 50.25315909253395 0 0 0
3330 2 124.99513782569942 14.981486547322765 50.39577330164091 0 0 0
3349 2 128.74922275258857 13.19316416347381 50.460352171199325 0 0 0
3350 2 132.62192468751252 15.566024760139438 50.36626264896419 0 0 0
3369 2 136.45375192074854 13.635687907340204 50.703737171245336 0 0 0
3370 2 140.03944254491154 15.458682808204621 50.25547488713818 0 0 0
3389 2 144.15795438248418 13.46459807812551 50.39772127590563 0 0 0
3390 2 147.69166683471158 15.88453659173742 50.46124826786282 0 0 0
3409 2 151.7438097398635 13.395660276696407 50.027067838749254 0 0 0
3410 2 155.33280552739615 15.521885936576155 50.06453119452766 0 0 0
3429 2 159.07630791424432 13.275110159479853 49.86545326241024 0 0 0
3430 2 162.76284820689767 15.445921205433763 50.146382500660636 0 0 0
3449 2 166.57492266288745 13.475780201697534 49.99312139588189 0 0 0
3450 2 170.07468646807857 15.306540009991059 49.991681185343005 0 0 0
3469 2 174.23107503542647 13.09813752500192 49.94104194529573 0 0 0
3470 2 177.739309989999 15.389921020835821 50.00336107483668 0 0 0
3489 2 181.6339283661628 13.229596274652367 49.8174751827632 0 0 0
3490 2 185.81747269801048 15.519776776370074 50.0977797419087 0 0 0
3509 2 189.54492236449008 13.077908069836406 49.95335401347497 0 0 0
3510 2 193.10498040190072 15.397770694198412 50.018046286438604 0 0 0
3529 2 196.85893782199113 13.28101772009741 49.901582712984016 0 0 0
3530 2 200.68767788852995 15.377128126990975 50.00495638550818 0 0 0
3549 2 204.29391108342944 13.233260325872934 49.91582808909411 0 0 0
3550 2 208.13007562880972 15.113955457409926 49.91013784489153 0 0 0
3569 2 211.69287519792354 13.066719150449993 49.96533598143695 0 0 0
3570 2 215.51366296656846 15.256910895145637 49.76117487134844 0 0 0
3589 2 219.18909153973635 13.386140206089447 49.59596235894861 0 0 0
3590 2 223.10561521716167 15.479872162670876 49.705579057506554 0 0 0
3609 2 227.22195396636712 12.927204876825883 49.64902539913915 0 0 0
3610 2 230.97951676521308 15.087692753489804 49.89162399143608 0 0 0
3629 2 234.75106973743777 13.12469842375459 49.9327240311591 0 0 0
3630 2 238.69352039686004 15.034322663241323 49.60539103548316 0 0 0
3649 2 242.33559586872622 13.061838929794728 49.75654569632135 0 0 0
3650 2 246.12128226665862 15.236362404918756 49.69502701062945 0 0 0
3669 2 249.87536581192722 13.007554764444047 49.59995510784062 0 0 0
3670 2 253.6098019118245 15.108853780465028 49.86861246620326 0 0 0
3689 2 257.59700564780576 13.455558390652973 49.90309997812729 0 0 0
3690 2 261.34682720357915 15.53724337712192 49.82689538302546 0 0 0
3709 2 264.6767410802835 13.44190691417466 49.70783728892638 0 0 0
3710 2 268.53402720564463 15.644862536766272 49.347430469622815 0 0 0
3729 2 272.36914913634837 13.285850238102084 49.526747010606194 0 0 0
3730 2 276.3302282104244 15.376570956935643 49.281150437047486 0 0 0
3749 2 280.29718464292665 13.60124063674651 49.21898703320248 0 0 0
3750 2 283.9406791628927 15.45685217515792 49.61882726705388 0 0 0
3769 2 287.97927196100824 13.454774480772624 49.74982173885591 0 0 0
3770 2 291.59673305329096 15.488600318085947 49.454176985531696 0 0 0
3789 2 295.64989134264073 13.234016911268242 49.79454949676245 0 0 0
3790 2 299.2552490573962 15.286826204695503 49.543980351746676 0 0 0
3809 2 303.1853944691403 13.14561211669474 49.853586359924854 0 0 0
3810 2 307.0187902351581 14.912454897719687 49.871999832209355 0 0 0
3829 2 310.64732256701166 12.401288473884607 49.786272469832106 0 0 0
3830 2 314.35117300255945 14.838882867324232 49.695880466919036 0 0 0
3849 2 318.1806560608441 12.692569915009102 49.98978410230666 0 0 0
3850 2 321.82765815918583 15.007693805546353 49.70156714912563 0 0 0
3869 2 325.85670960528915 12.785429143669406 50.10905331302097 0 0 0
3870 2 329.70931414739437 15.121242069037795 49.91186563323921 0 0 0
3889 2 333.67896926479057 12.885927931097525 50.24368317091365 0 0 0
3890 2 337.2492092677928 14.992548426328499 50.06428734322169 0 0 0
3909 2 340.67148316355707 12.709053074949813 49.775066334728805 0 0 0
3910 2 344.73903719073155 14.926242879435133 49.83189134225964 0 0 0
3929 2 348.45920238156884 13.010728634828363 50.19482823374171 0 0 0
3930 2 351.99586862592656 15.040495510040635 50.047087364568426 0 0 0
3949 2 355.8234553516878 12.721256408881418 50.22178792960969 0 0 0
3950 2 359.6682196574921 14.961314024124288 49.89267955964999 0 0 0
3969 2 364.0709324050357 13.004909696551277 49.79905480095947 0 0 0
3970 2 367.6965693308771 15.267530315317462 50.000162068 0 0 0
3989 2 371.4379350273535 13.031742941323332 50.000162068 0 0 0
3990 2 375.1256188574779 15.269352664499026 50.000162068 0 0 0
1 1 1.3601351189777757 2.0819369340468583 51.740647988 0 0 0
2 1 5.028849079060149 17.35342144667127 51.740647988 0 -1 0
3 1 0.05208114816844073 17.445427147483013 55.791981768 0 -1 0
4 1 3.8020982666567944 2.0693568055441993 55.791981768 0 0 0
13 2 2.589246069977969 17.420030695698614 53.76690288 0 -1 0
1002 1 5.116258586121296 4.20944611558484 51.740647988 0 0 0
1003 1 0.14869349060692819 4.332970865144004 55.791981768 0 0 0
1013 2 2.652108549647551 4.275767951670605 53.76690288 0 0 0
14 2 6.369615424210953 2.0403362562585436 53.76690288 0 0 0
21 1 8.769303120959751 2.0360999716068195 51.740647988 0 0 0
23 1 7.543760668676153 17.406894959134235 55.791981768 0 -1 0
33 2 10.0269733720369 17.344442029969 53.76690288 0 -1 0
1023 1 7.511911874321642 4.270088035142331 55.791981768 0 0 0
1033 2 9.968105190234198 4.284131934804715 53.76690288 0 0 0
22 1 12.469057956114927 0.009944750184554907 51.740647988 0 0 0
24 1 11.345348297578562 2.116299159047912 55.791981768 0 0 0
34 2 13.764892887512609 2.3981532091291498 53.85231778985141 0 0 0
41 1 16.270201748364766 2.382442921907622 51.787698338888184 0 0 0
43 1 15.028172718432968 17.46468608658857 55.75563282571384 0 -1 0
1022 1 12.595257586546847 4.480222030577048 51.740647988 0 0 0
1043 1 15.130045426752751 4.362317297132404 55.75852707819919 0 0 0
42 1 20.13911094348464 0.05946282164513892 51.75489637529749 0 0 0
44 1 18.918023273706652 2.4811850114909197 55.69491678317603 0 0 0
53 2 17.478180057690977 0.21597859175164147 53.71782361547083 0 0 0
54 2 21.507362436628494 2.2330298460570135 53.814998003655596 0 0 0
1042 1 20.112202708414376 4.488533987887245 51.93193047310459 0 0 0
1053 2 17.596831249474135 4.5708815462967385 53.81800199968094 0 0 0
61 1 23.952744588851935 2.535315682037718 51.68624175584169 0 0 0
62 1 27.75683158041643 0.4053322382170024 51.812203764498925 0 0 0
63 1 22.895325720494238 0.2328071427241854 56.11239483341847 0 0 0
64 1 26.441776566984903 2.6392440394789336 55.70281540289461 0 0 0
73 2 25.224650922138757 0.3583801240048268 53.809921500444425 0 0 0
1062 1 27.808650820195883 4.536589457908658 51.65897295613164 0 0 0
1063 1 22.685716674137574 4.413161382748256 55.703558158006594 0 0 0
1073 2 25.26492658376921 4.559470849136871 53.68676665924177 0 0 0
74 2 28.910064624737096 2.5567456554378563 53.88267949005641 0 0 0
81 1 31.3863201449412 2.321814645168447 51.59077333226466 0 0 0
83 1 30.34239901710424 0.2989229411282762 56.20773235403214 0 0 0
93 2 32.668765864952476 0.25913601772034955 53.82455249624951 0 0 0
1083 1 30.3536370154014 4.698884646267515 56.018738020208126 0 0 0
1093 2 32.70292549156925 4.404607762668169 53.77774383155641 0 0 0