
15 atoms
2 atom types
   0.0000000000    4.3732525185 xlo xhi
   0.0000000000    3.8250337584 ylo yhi
   0.0000000000   30.2002158785 zlo zhi
  -2.1866268355   -0.0000000001   -0.0000000001 xy xz yz

Atoms # atomic

     1      1   -0.0000025708    2.5500237806    2.0256643799
     2      1   -0.0000025708    2.5500237806    8.0410792796
     3      1    0.0000000160    0.0000000379   12.0924080395
     4      1    0.0000000244    0.0000000329   18.1078078390
     5      1    2.1866282537    1.2750099777   22.1591365989
     6      1    2.1866282537    1.2750099776   28.1745665987
     7      2    2.1866282538    1.2750099778    3.7668125261
     8      2    0.0000000246    0.0000000430    0.0000001921
     9      2    0.0000000165    0.0000000393    6.2999160333
    10      2   -0.0000025709    2.5500237805   13.8335712858
    11      2    2.1866282537    1.2750099777   10.0667285594
    12      2    2.1866282537    1.2750099777   16.3666445928
    13      2    0.0000000253    0.0000000340   23.9002998452
    14      2   -0.0000025709    2.5500237805   20.1334873191
    15      2   -0.0000025709    2.5500237805   26.4334033524
