
15 atoms
2 atom types
   0.0000000000    4.4165548645 xlo xhi
   0.0000000000    3.8248487094 ylo yhi
   0.0000000000   30.4992473644 zlo zhi
  -2.2082780142   -0.0000000001   -0.0000000001 xy xz yz

Atoms # atomic

     1      1   -0.0000025963    2.5499004145    2.0457217673
     2      1   -0.0000025963    2.5499004145    8.1206991040
     3      1    0.0000000162    0.0000000379   12.2121426387
     4      1    0.0000000246    0.0000000329   18.2871047257
     5      1    2.2082794465    1.2749482948   22.3785482604
     6      1    2.2082794465    1.2749482947   28.4535408467
     7      2    2.2082794466    1.2749482949    3.8041101253
     8      2    0.0000000248    0.0000000430    0.0000001940
     9      2    0.0000000167    0.0000000393    6.3622954964
    10      2   -0.0000025964    2.5499004144   13.9705462463
    11      2    2.2082794465    1.2749482948   10.1664056217
    12      2    2.2082794465    1.2749482948   16.5287011182
    13      2    0.0000000256    0.0000000340   24.1369518680
    14      2   -0.0000025964    2.5499004144   20.3328417427
    15      2   -0.0000025964    2.5499004144   26.6951372391
