
15 atoms
2 atom types
   0.0000000000    4.3851711428 xlo xhi
   0.0000000000    3.7976696096 ylo yhi
   0.0000000000   30.2840157629 zlo zhi
  -2.1925855714   -0.0000000000    0.0000000000 xy xz yz

Atoms # atomic

     1      1   -0.0000000022    2.5317798170    8.0715607733
     2      1   -0.0000000022    2.5317798170    2.0231114707
     3      1   -0.0000000000    0.0000000000   18.1662320785
     4      1   -0.0000000000    0.0000000000   12.1177836844
     5      1    2.1925856394    1.2658899066   28.2609052007
     6      1    2.1925856394    1.2658899066   22.2124549896
     7      2    2.1925856394    1.2658899066    3.7577677253
     8      2    0.0000000000    0.0000000000    0.0000000000
     9      2   -0.0000000000    0.0000000000    6.3369040342
    10      2   -0.0000000022    2.5317798170   13.8524399693
    11      2    2.1925856394    1.2658899066   10.0946722137
    12      2    2.1925856394    1.2658899066   16.4315767022
    13      2   -0.0000000000    0.0000000000   23.9471121830
    14      2   -0.0000000022    2.5317798170   20.1893444577
    15      2   -0.0000000022    2.5317798170   26.5262480377
