
15 atoms
2 atom types
   0.0000000000    4.4308019144 xlo xhi
   0.0000000000    3.8371870165 ylo yhi
   0.0000000000   30.5976327147 zlo zhi
  -2.2154015410   -0.0000000001   -0.0000000001 xy xz yz

Atoms # atomic

     1      1   -0.0000026046    2.5581259567    2.0523209155
     2      1   -0.0000026046    2.5581259567    8.1468950890
     3      1    0.0000000162    0.0000000380   12.2515369201
     4      1    0.0000000247    0.0000000330   18.3460957947
     5      1    2.2154029779    1.2790610597   22.4507376257
     6      1    2.2154029779    1.2790610596   28.5453270980
     7      2    2.2154029780    1.2790610598    3.8163815332
     8      2    0.0000000249    0.0000000432    0.0000001946
     9      2    0.0000000167    0.0000000394    6.3828191724
    10      2   -0.0000026047    2.5581259566   14.0156128366
    11      2    2.2154029779    1.2790610597   10.1992007057
    12      2    2.2154029779    1.2790610597   16.5820198782
    13      2    0.0000000256    0.0000000341   24.2148135423
    14      2   -0.0000026047    2.5581259566   20.3984320090
    15      2   -0.0000026047    2.5581259566   26.7812511815
