
15 atoms
2 atom types
   0.0000000000    4.3732525185 xlo xhi
   0.0000000000    3.7873477777 ylo yhi
   0.0000000000   30.1941752312 zlo zhi
  -2.1866268355   -0.6040043177   -0.0000000001 xy xz yz

Atoms # atomic

     1      1   -0.0405158584    2.5248997809    2.0252592065
     2      1   -0.1608241564    2.5248997809    8.0394709029
     3      1   -0.2418481448    0.0000000375   12.0899893160
     4      1   -0.3621561324    0.0000000326   18.1041859152
     5      1    1.7434455217    1.2624479967   22.1547043283
     6      1    1.6231369217    1.2624479966   28.1689311218
     7      2    2.1112920033    1.2624479968    3.7660590882
     8      2    0.0000000208    0.0000000426    0.0000001921
     9      2   -0.1259983042    0.0000000389    6.2986559241
    10      2   -0.2766739966    2.5248997808   13.8308042948
    11      2    1.9852936825    1.2624479967   10.0647150123
    12      2    1.8592953618    1.2624479967   16.3633709365
    13      2   -0.4780059716    0.0000000337   23.8955193071
    14      2   -0.4026723173    2.5248997808   20.1294602189
    15      2   -0.5286706379    2.5248997808   26.4281161430
