LAMMPS data file via write_data, version 2 Aug 2023, timestep = 50, units = metal

14620 atoms
4 atom types

0 50 xlo xhi
0 50 ylo yhi
0 150 zlo zhi

Masses

1 63.55
2 63.55
3 63.55
4 12.01

Atoms # atomic

1 1 0 0 0 0 0 0
2 1 1.8075 1.8075 0 0 0 0
3 1 1.8075 0 1.8075 0 0 0
4 1 0 1.8075 1.8075 0 0 0
5 1 3.615 0 0 0 0 0
6 1 5.4225 1.8075 0 0 0 0
7 1 5.4225 0 1.8075 0 0 0
8 1 3.615 1.8075 1.8075 0 0 0
29 1 0 3.615 0 0 0 0
30 1 1.8075 5.4225 0 0 0 0
31 1 1.8075 3.615 1.8075 0 0 0
32 1 0 5.4225 1.8075 0 0 0
33 1 3.615 3.615 0 0 0 0
34 1 5.4225 5.4225 0 0 0 0
35 1 5.4225 3.615 1.8075 0 0 0
36 1 3.615 5.4225 1.8075 0 0 0
197 1 0 0 3.615 0 0 0
198 1 1.8075 1.8075 3.615 0 0 0
199 2 1.9167506186771206 0.3837941063091957 5.426016092540793 0 0 0
200 2 0.35156103471366645 1.9365471164457095 5.440655721803558 0 0 0
201 1 3.615 0 3.615 0 0 0
202 1 5.4225 1.8075 3.615 0 0 0
203 2 5.4450851851475655 0.3355935720517805 5.442707422704554 0 0 0
204 2 3.6201379438490253 1.8409414006181957 5.390228514076831 0 0 0
225 1 0 3.615 3.615 0 0 0
226 1 1.8075 5.4225 3.615 0 0 0
227 2 1.8185444781009463 3.6749538495133445 5.472367419730783 0 0 0
228 2 0.3589385819415239 5.4944366701095975 5.478055239082894 0 0 0
229 1 3.615 3.615 3.615 0 0 0
230 1 5.4225 5.4225 3.615 0 0 0
231 2 5.476871150946733 3.6494334197442506 5.350787966326146 0 0 0
232 2 3.562799134163808 5.381225793737411 5.375030089434867 0 0 0
9 1 7.23 0 0 0 0 0
10 1 9.037500000000001 1.8075 0 0 0 0
11 1 9.037500000000001 0 1.8075 0 0 0
12 1 7.23 1.8075 1.8075 0 0 0
13 1 10.845 0 0 0 0 0
16 1 10.845 1.8075 1.8075 0 0 0
37 1 7.23 3.615 0 0 0 0
38 1 9.037500000000001 5.4225 0 0 0 0
39 1 9.037500000000001 3.615 1.8075 0 0 0
40 1 7.23 5.4225 1.8075 0 0 0
41 1 10.845 3.615 0 0 0 0
44 1 10.845 5.4225 1.8075 0 0 0
205 1 7.23 0 3.615 0 0 0
206 1 9.037500000000001 1.8075 3.615 0 0 0
207 2 9.021320611081306 0.3279713064344851 5.493581018776255 0 0 0
208 2 7.227629562864858 1.797386423427344 5.372886645579238 0 0 0
209 1 10.845 0 3.615 0 0 0
212 2 10.77935124588202 1.8404093119569973 5.361497238108407 0 0 0
233 1 7.23 3.615 3.615 0 0 0
234 1 9.037500000000001 5.4225 3.615 0 0 0
235 2 8.974226393925901 3.5582450898761184 5.445704710730812 0 0 0
236 2 7.224372603592536 5.490974192597106 5.479224363843962 0 0 0
237 1 10.845 3.615 3.615 0 0 0
240 2 10.79743075665842 5.3716790926606945 5.364588995361252 0 0 0
14 1 12.6525 1.8075 0 0 0 0
15 1 12.6525 0 1.8075 0 0 0
17 1 14.46 0 0 0 0 0
18 1 16.267500000000002 1.8075 0 0 0 0
19 1 16.267500000000002 0 1.8075 0 0 0
20 1 14.46 1.8075 1.8075 0 0 0
21 1 18.075000000000003 0 0 0 0 0
24 1 18.075000000000003 1.8075 1.8075 0 0 0
42 1 12.6525 5.4225 0 0 0 0
43 1 12.6525 3.615 1.8075 0 0 0
45 1 14.46 3.615 0 0 0 0
46 1 16.267500000000002 5.4225 0 0 0 0
47 1 16.267500000000002 3.615 1.8075 0 0 0
48 1 14.46 5.4225 1.8075 0 0 0
49 1 18.075000000000003 3.615 0 0 0 0
52 1 18.075000000000003 5.4225 1.8075 0 0 0
210 1 12.6525 1.8075 3.615 0 0 0
211 2 12.665372307621682 0.30875160205050817 5.4887821368176875 0 0 0
213 1 14.46 0 3.615 0 0 0
214 1 16.267500000000002 1.8075 3.615 0 0 0
215 2 16.23003678553609 0.3758167048499421 5.490104520278397 0 0 0
216 2 14.401154286313153 1.79840152757471 5.3830579852625355 0 0 0
217 1 18.075000000000003 0 3.615 0 0 0
220 2 18.071806151512686 1.867979377799683 5.33955810924586 0 0 0
238 1 12.6525 5.4225 3.615 0 0 0
239 2 12.613571211636494 3.5817199408433824 5.446932238218185 0 0 0
241 1 14.46 3.615 3.615 0 0 0
242 1 16.267500000000002 5.4225 3.615 0 0 0
243 2 16.20920185908293 3.6411057529352346 5.476153624023767 0 0 0
244 2 14.435080865797172 5.4223697825380635 5.438294640185366 0 0 0
245 1 18.075000000000003 3.615 3.615 0 0 0
248 2 18.152276952060312 5.420362881284259 5.352662632597981 0 0 0
22 1 19.8825 1.8075 0 0 0 0
23 1 19.8825 0 1.8075 0 0 0
25 1 21.69 0 0 0 0 0
26 1 23.497500000000002 1.8075 0 0 0 0
27 1 23.497500000000002 0 1.8075 0 0 0
28 1 21.69 1.8075 1.8075 0 0 0
50 1 19.8825 5.4225 0 0 0 0
51 1 19.8825 3.615 1.8075 0 0 0
53 1 21.69 3.615 0 0 0 0
54 1 23.497500000000002 5.4225 0 0 0 0
55 1 23.497500000000002 3.615 1.8075 0 0 0
56 1 21.69 5.4225 1.8075 0 0 0
218 1 19.8825 1.8075 3.615 0 0 0
219 2 19.87166933960796 0.3083790379391949 5.448704705575217 0 0 0
221 1 21.69 0 3.615 0 0 0
222 1 23.497500000000002 1.8075 3.615 0 0 0
223 2 23.529671377672603 0.36018443820699825 5.474712129283196 0 0 0
224 2 21.662191607771426 1.852452575676316 5.3366882363194375 0 0 0
246 1 19.8825 5.4225 3.615 0 0 0
247 2 19.929229888731346 3.654761507516374 5.41412090943415 0 0 0
249 1 21.69 3.615 3.615 0 0 0
250 1 23.497500000000002 5.4225 3.615 0 0 0
251 2 23.423491184263106 3.5759364321061966 5.382160338085901 0 0 0
252 2 21.657946893180355 5.373034795220311 5.464518238704363 0 0 0
57 1 0 7.23 0 0 0 0
58 1 1.8075 9.037500000000001 0 0 0 0
59 1 1.8075 7.23 1.8075 0 0 0
60 1 0 9.037500000000001 1.8075 0 0 0
61 1 3.615 7.23 0 0 0 0
62 1 5.4225 9.037500000000001 0 0 0 0
63 1 5.4225 7.23 1.8075 0 0 0
64 1 3.615 9.037500000000001 1.8075 0 0 0
85 1 0 10.845 0 0 0 0
87 1 1.8075 10.845 1.8075 0 0 0
89 1 3.615 10.845 0 0 0 0
91 1 5.4225 10.845 1.8075 0 0 0
253 1 0 7.23 3.615 0 0 0
254 1 1.8075 9.037500000000001 3.615 0 0 0
255 2 1.9143577082374894 7.223374927406885 5.3919920765746205 0 0 0
256 2 0.4153224113522821 8.980239688973251 5.426270262603257 0 0 0
257 1 3.615 7.23 3.615 0 0 0
258 1 5.4225 9.037500000000001 3.615 0 0 0
259 2 5.348353417179068 7.296079342031303 5.4059937208791276 0 0 0
260 2 3.6304816531746327 9.043096584943175 5.422045335326292 0 0 0
281 1 0 10.845 3.615 0 0 0
283 2 1.9048920069705713 10.839082642845392 5.340366576876967 0 0 0
285 1 3.615 10.845 3.615 0 0 0
287 2 5.50068709734185 10.859819475174616 5.35693706973063 0 0 0
65 1 7.23 7.23 0 0 0 0
66 1 9.037500000000001 9.037500000000001 0 0 0 0
67 1 9.037500000000001 7.23 1.8075 0 0 0
68 1 7.23 9.037500000000001 1.8075 0 0 0
69 1 10.845 7.23 0 0 0 0
72 1 10.845 9.037500000000001 1.8075 0 0 0
93 1 7.23 10.845 0 0 0 0
95 1 9.037500000000001 10.845 1.8075 0 0 0
97 1 10.845 10.845 0 0 0 0
261 1 7.23 7.23 3.615 0 0 0
262 1 9.037500000000001 9.037500000000001 3.615 0 0 0
263 2 9.03348527079779 7.279646172899722 5.429404748769371 0 0 0
264 2 7.2778370804957255 9.012555468815066 5.435912273958796 0 0 0
265 1 10.845 7.23 3.615 0 0 0
268 2 10.810365885097886 9.051186298436939 5.433355439779986 0 0 0
289 1 7.23 10.845 3.615 0 0 0
291 2 8.973883540181038 10.77994564656273 5.347011173446756 0 0 0
293 1 10.845 10.845 3.615 0 0 0
70 1 12.6525 9.037500000000001 0 0 0 0
71 1 12.6525 7.23 1.8075 0 0 0
73 1 14.46 7.23 0 0 0 0
74 1 16.267500000000002 9.037500000000001 0 0 0 0
75 1 16.267500000000002 7.23 1.8075 0 0 0
76 1 14.46 9.037500000000001 1.8075 0 0 0
77 1 18.075000000000003 7.23 0 0 0 0
80 1 18.075000000000003 9.037500000000001 1.8075 0 0 0
99 1 12.6525 10.845 1.8075 0 0 0
101 1 14.46 10.845 0 0 0 0
103 1 16.267500000000002 10.845 1.8075 0 0 0
105 1 18.075000000000003 10.845 0 0 0 0
266 1 12.6525 9.037500000000001 3.615 0 0 0
267 2 12.578073495261192 7.173080582647818 5.368014582768406 0 0 0
269 1 14.46 7.23 3.615 0 0 0
270 1 16.267500000000002 9.037500000000001 3.615 0 0 0
271 2 16.323221559897465 7.177703119498867 5.440988357014888 0 0 0
272 2 14.483574240256585 8.998435038562182 5.405416314863799 0 0 0
273 1 18.075000000000003 7.23 3.615 0 0 0
276 2 18.07792050801342 9.02639885964515 5.450093472681377 0 0 0
295 2 12.671844595623826 10.880149284552644 5.43061854220116 0 0 0
297 1 14.46 10.845 3.615 0 0 0
299 2 16.333141085420685 10.795120344450057 5.4130407055270515 0 0 0
301 1 18.075000000000003 10.845 3.615 0 0 0
78 1 19.8825 9.037500000000001 0 0 0 0
79 1 19.8825 7.23 1.8075 0 0 0
81 1 21.69 7.23 0 0 0 0
82 1 23.497500000000002 9.037500000000001 0 0 0 0
83 1 23.497500000000002 7.23 1.8075 0 0 0
84 1 21.69 9.037500000000001 1.8075 0 0 0
107 1 19.8825 10.845 1.8075 0 0 0
109 1 21.69 10.845 0 0 0 0
111 1 23.497500000000002 10.845 1.8075 0 0 0
274 1 19.8825 9.037500000000001 3.615 0 0 0
275 2 19.926347617678573 7.297604413468492 5.361152215867109 0 0 0
277 1 21.69 7.23 3.615 0 0 0
278 1 23.497500000000002 9.037500000000001 3.615 0 0 0
279 2 23.536269852724487 7.250159698098346 5.483389823675839 0 0 0
280 2 21.719846932460605 9.071109379053487 5.4498974270718215 0 0 0
303 2 19.835001064316778 10.901350833950497 5.448429508988536 0 0 0
305 1 21.69 10.845 3.615 0 0 0
307 2 23.453158135288856 10.923703134906939 5.401816137434811 0 0 0
86 1 1.8075 12.6525 0 0 0 0
88 1 0 12.6525 1.8075 0 0 0
90 1 5.4225 12.6525 0 0 0 0
92 1 3.615 12.6525 1.8075 0 0 0
113 1 0 14.46 0 0 0 0
114 1 1.8075 16.267500000000002 0 0 0 0
115 1 1.8075 14.46 1.8075 0 0 0
116 1 0 16.267500000000002 1.8075 0 0 0
117 1 3.615 14.46 0 0 0 0
118 1 5.4225 16.267500000000002 0 0 0 0
119 1 5.4225 14.46 1.8075 0 0 0
120 1 3.615 16.267500000000002 1.8075 0 0 0
141 1 0 18.075000000000003 0 0 0 0
143 1 1.8075 18.075000000000003 1.8075 0 0 0
145 1 3.615 18.075000000000003 0 0 0 0
147 1 5.4225 18.075000000000003 1.8075 0 0 0
282 1 1.8075 12.6525 3.615 0 0 0
284 2 0.34907635230558154 12.681733104159102 5.483815781486856 0 0 0
286 1 5.4225 12.6525 3.615 0 0 0
288 2 3.5850372245742452 12.615605697882788 5.391803075143478 0 0 0
309 1 0 14.46 3.615 0 0 0
310 1 1.8075 16.267500000000002 3.615 0 0 0
311 2 1.8140839134483044 14.468579362640563 5.409054837693785 0 0 0
312 2 0.3686785593978943 16.33906764707143 5.427411551436183 0 0 0
313 1 3.615 14.46 3.615 0 0 0
314 1 5.4225 16.267500000000002 3.615 0 0 0
315 2 5.432922704965162 14.45034486497764 5.35777256389484 0 0 0
316 2 3.649806411851751 16.21760524628906 5.392522173133685 0 0 0
337 1 0 18.075000000000003 3.615 0 0 0
339 2 1.935713389948023 18.04579203928385 5.446808880436324 0 0 0
341 1 3.615 18.075000000000003 3.615 0 0 0
343 2 5.356983815864209 18.147617276631895 5.476665787161469 0 0 0
94 1 9.037500000000001 12.6525 0 0 0 0
96 1 7.23 12.6525 1.8075 0 0 0
100 1 10.845 12.6525 1.8075 0 0 0
121 1 7.23 14.46 0 0 0 0
122 1 9.037500000000001 16.267500000000002 0 0 0 0
123 1 9.037500000000001 14.46 1.8075 0 0 0
124 1 7.23 16.267500000000002 1.8075 0 0 0
125 1 10.845 14.46 0 0 0 0
128 1 10.845 16.267500000000002 1.8075 0 0 0
149 1 7.23 18.075000000000003 0 0 0 0
151 1 9.037500000000001 18.075000000000003 1.8075 0 0 0
153 1 10.845 18.075000000000003 0 0 0 0
290 1 9.037500000000001 12.6525 3.615 0 0 0
292 2 7.306329692297929 12.653171606963118 5.434383110383638 0 0 0
296 2 10.896494907266423 12.595703494009094 5.39988431957016 0 0 0
317 1 7.23 14.46 3.615 0 0 0
318 1 9.037500000000001 16.267500000000002 3.615 0 0 0
319 2 9.044610965090426 14.452564694676537 5.436620355402211 0 0 0
320 2 7.2734692157478005 16.33776946478543 5.463107129605815 0 0 0
321 1 10.845 14.46 3.615 0 0 0
324 2 10.8493869916614 16.355880195652645 5.40986416653466 0 0 0
345 1 7.23 18.075000000000003 3.615 0 0 0
347 2 9.080511043238083 18.120129697889496 5.426422112872402 0 0 0
349 1 10.845 18.075000000000003 3.615 0 0 0
98 1 12.6525 12.6525 0 0 0 0
102 1 16.267500000000002 12.6525 0 0 0 0
104 1 14.46 12.6525 1.8075 0 0 0
108 1 18.075000000000003 12.6525 1.8075 0 0 0
126 1 12.6525 16.267500000000002 0 0 0 0
127 1 12.6525 14.46 1.8075 0 0 0
129 1 14.46 14.46 0 0 0 0
130 1 16.267500000000002 16.267500000000002 0 0 0 0
131 1 16.267500000000002 14.46 1.8075 0 0 0
132 1 14.46 16.267500000000002 1.8075 0 0 0
133 1 18.075000000000003 14.46 0 0 0 0
136 1 18.075000000000003 16.267500000000002 1.8075 0 0 0
155 1 12.6525 18.075000000000003 1.8075 0 0 0
157 1 14.46 18.075000000000003 0 0 0 0
159 1 16.267500000000002 18.075000000000003 1.8075 0 0 0
161 1 18.075000000000003 18.075000000000003 0 0 0 0
294 1 12.6525 12.6525 3.615 0 0 0
298 1 16.267500000000002 12.6525 3.615 0 0 0
300 2 14.446400875493229 12.625143743348309 5.427841707562068 0 0 0
304 2 18.02869132147989 12.719687062961444 5.4764248266044495 0 0 0
322 1 12.6525 16.267500000000002 3.615 0 0 0
323 2 12.657933614202687 14.46591471503491 5.405220944775832 0 0 0
325 1 14.46 14.46 3.615 0 0 0
326 1 16.267500000000002 16.267500000000002 3.615 0 0 0
327 2 16.200316944992633 14.463691654497877 5.461841821904943 0 0 0
328 2 14.536815649318159 16.3289357018024 5.376538283894986 0 0 0
329 1 18.075000000000003 14.46 3.615 0 0 0
332 2 18.05243993678033 16.31302010183384 5.432490088151457 0 0 0
351 2 12.688753656030928 18.142571483594157 5.461635740760169 0 0 0
353 1 14.46 18.075000000000003 3.615 0 0 0
355 2 16.29295332939814 18.16137185739861 5.454913247324186 0 0 0
357 1 18.075000000000003 18.075000000000003 3.615 0 0 0
106 1 19.8825 12.6525 0 0 0 0
110 1 23.497500000000002 12.6525 0 0 0 0
112 1 21.69 12.6525 1.8075 0 0 0
134 1 19.8825 16.267500000000002 0 0 0 0
135 1 19.8825 14.46 1.8075 0 0 0
137 1 21.69 14.46 0 0 0 0
138 1 23.497500000000002 16.267500000000002 0 0 0 0
139 1 23.497500000000002 14.46 1.8075 0 0 0
140 1 21.69 16.267500000000002 1.8075 0 0 0
163 1 19.8825 18.075000000000003 1.8075 0 0 0
165 1 21.69 18.075000000000003 0 0 0 0
167 1 23.497500000000002 18.075000000000003 1.8075 0 0 0
302 1 19.8825 12.6525 3.615 0 0 0
306 1 23.497500000000002 12.6525 3.615 0 0 0
308 2 21.672526931725876 12.717007549289043 5.353708500360203 0 0 0
330 1 19.8825 16.267500000000002 3.615 0 0 0
331 2 19.866264523900643 14.4470278519198 5.467433527014786 0 0 0
333 1 21.69 14.46 3.615 0 0 0
334 1 23.497500000000002 16.267500000000002 3.615 0 0 0
335 2 23.43564412651122 14.491216360771102 5.35467038913309 0 0 0
336 2 21.66188095251836 16.27908712021969 5.453148866358785 0 0 0
359 2 19.841862494858855 18.12989346393445 5.349745813046376 0 0 0
361 1 21.69 18.075000000000003 3.615 0 0 0
363 2 23.479774401415696 18.127933248142778 5.352205143987529 0 0 0
142 1 1.8075 19.8825 0 0 0 0
144 1 0 19.8825 1.8075 0 0 0
146 1 5.4225 19.8825 0 0 0 0
148 1 3.615 19.8825 1.8075 0 0 0
169 1 0 21.69 0 0 0 0
170 1 1.8075 23.497500000000002 0 0 0 0
171 1 1.8075 21.69 1.8075 0 0 0
172 1 0 23.497500000000002 1.8075 0 0 0
173 1 3.615 21.69 0 0 0 0
174 1 5.4225 23.497500000000002 0 0 0 0
175 1 5.4225 21.69 1.8075 0 0 0
176 1 3.615 23.497500000000002 1.8075 0 0 0
338 1 1.8075 19.8825 3.615 0 0 0
340 2 0.3600685137768769 19.907005982354935 5.465642927452705 0 0 0
342 1 5.4225 19.8825 3.615 0 0 0
344 2 3.5745043760594815 19.96548795965575 5.359257182961335 0 0 0
365 1 0 21.69 3.615 0 0 0
366 1 1.8075 23.497500000000002 3.615 0 0 0
367 2 1.792185905360919 21.727157628983846 5.407853497236575 0 0 0
368 2 0.4181886593788595 23.569389553292808 5.490652364433282 0 0 0
369 1 3.615 21.69 3.615 0 0 0
370 1 5.4225 23.497500000000002 3.615 0 0 0
371 2 5.482080678938431 21.673238122920583 5.367316921299245 0 0 0
372 2 3.6893284097651575 23.512216657489592 5.431559603428408 0 0 0
150 1 9.037500000000001 19.8825 0 0 0 0
152 1 7.23 19.8825 1.8075 0 0 0
156 1 10.845 19.8825 1.8075 0 0 0
177 1 7.23 21.69 0 0 0 0
178 1 9.037500000000001 23.497500000000002 0 0 0 0
179 1 9.037500000000001 21.69 1.8075 0 0 0
180 1 7.23 23.497500000000002 1.8075 0 0 0
181 1 10.845 21.69 0 0 0 0
184 1 10.845 23.497500000000002 1.8075 0 0 0
346 1 9.037500000000001 19.8825 3.615 0 0 0
348 2 7.1745337756134 19.842330325917498 5.404456499733524 0 0 0
352 2 10.845818086926013 19.897945725972427 5.452057755291712 0 0 0
373 1 7.23 21.69 3.615 0 0 0
374 1 9.037500000000001 23.497500000000002 3.615 0 0 0
375 2 9.076893072359681 21.65414374877345 5.4305839556279265 0 0 0
376 2 7.253889731020266 23.577853959154808 5.384704944569391 0 0 0
377 1 10.845 21.69 3.615 0 0 0
380 2 10.78475404410433 23.47606553366378 5.416183609820958 0 0 0
154 1 12.6525 19.8825 0 0 0 0
158 1 16.267500000000002 19.8825 0 0 0 0
160 1 14.46 19.8825 1.8075 0 0 0
164 1 18.075000000000003 19.8825 1.8075 0 0 0
182 1 12.6525 23.497500000000002 0 0 0 0
183 1 12.6525 21.69 1.8075 0 0 0
185 1 14.46 21.69 0 0 0 0
186 1 16.267500000000002 23.497500000000002 0 0 0 0
187 1 16.267500000000002 21.69 1.8075 0 0 0
188 1 14.46 23.497500000000002 1.8075 0 0 0
189 1 18.075000000000003 21.69 0 0 0 0
192 1 18.075000000000003 23.497500000000002 1.8075 0 0 0
350 1 12.6525 19.8825 3.615 0 0 0
354 1 16.267500000000002 19.8825 3.615 0 0 0
356 2 14.445545468164383 19.922237043267298 5.460359877662081 0 0 0
360 2 18.118868330078662 19.872284049975764 5.357076230231355 0 0 0
378 1 12.6525 23.497500000000002 3.615 0 0 0
379 2 12.634664763910854 21.735754917131537 5.476229668484034 0 0 0
381 1 14.46 21.69 3.615 0 0 0
382 1 16.267500000000002 23.497500000000002 3.615 0 0 0
383 2 16.342670807114573 21.64669494500632 5.3624307899913495 0 0 0
384 2 14.509756845088225 23.47796500155314 5.461720318711144 0 0 0
385 1 18.075000000000003 21.69 3.615 0 0 0
388 2 18.163405166252637 23.528352250940483 5.412362698754585 0 0 0
162 1 19.8825 19.8825 0 0 0 0
166 1 23.497500000000002 19.8825 0 0 0 0
168 1 21.69 19.8825 1.8075 0 0 0
190 1 19.8825 23.497500000000002 0 0 0 0
191 1 19.8825 21.69 1.8075 0 0 0
193 1 21.69 21.69 0 0 0 0
194 1 23.497500000000002 23.497500000000002 0 0 0 0
195 1 23.497500000000002 21.69 1.8075 0 0 0
196 1 21.69 23.497500000000002 1.8075 0 0 0
358 1 19.8825 19.8825 3.615 0 0 0
362 1 23.497500000000002 19.8825 3.615 0 0 0
364 2 21.68380488791826 19.907416131539296 5.4226860307076015 0 0 0
386 1 19.8825 23.497500000000002 3.615 0 0 0
387 2 19.868857560407893 21.639626401229712 5.387522297415047 0 0 0
389 1 21.69 21.69 3.615 0 0 0
390 1 23.497500000000002 23.497500000000002 3.615 0 0 0
391 2 23.506102569859333 21.69615381217766 5.367833880130446 0 0 0
392 2 21.653022049748795 23.444544695630398 5.495210066714235 0 0 0
393 2 0.41973346691418634 0.4182586220491515 7.204143150897856 0 0 0
394 2 1.9309573278399301 2.004450743684652 7.224486592007817 0 0 0
395 2 1.942135267037353 0.3911162775125863 9.029488589666691 0 0 0
396 2 0.2802224248288828 1.9013183928364539 9.034221176031254 0 0 0
397 2 3.554048445962969 0.30723907353708463 7.187763697780147 0 0 0
398 2 5.406605990654299 1.8652885859014836 7.206033330759463 0 0 0
399 2 5.390504026917014 0.3873366568102599 9.06863414729761 0 0 0
400 2 3.603196908832145 1.8991972820423655 9.025732312350941 0 0 0
421 2 0.2810299943167624 3.5929698295250225 7.266624396374385 0 0 0
422 2 1.8560110065647726 5.465190887390208 7.2309602716018215 0 0 0
423 2 1.843071071962161 3.601872871049042 9.00312860746916 0 0 0
424 2 0.34648238322126823 5.395476216818065 9.011686107214885 0 0 0
425 2 3.677993294872648 3.64374943156152 7.161235190159459 0 0 0
426 2 5.404821998808716 5.4390937555531575 7.175324392190792 0 0 0
427 2 5.469125667204627 3.638547779058501 8.983907419702918 0 0 0
428 2 3.6447396364836186 5.472481561790863 9.100451282924967 0 0 0
589 3 0.5222450584250327 0.50868593198279 10.838077618463084 0 0 0
590 3 1.99958860560551 2.0187713966045893 10.83258755408014 0 0 0
593 3 3.61907368652625 0.3994120064867785 10.84783209956809 0 0 0
594 3 5.422025334522215 1.900659299854958 10.84926760456107 0 0 0
617 3 0.3959661982757968 3.6143739598555475 10.830046667821412 0 0 0
618 3 1.8777835189243919 5.426139637281156 10.830321179420626 0 0 0
621 3 3.6252640812960633 3.624948717963256 10.831323166414563 0 0 0
622 3 5.43314261373198 5.41495916607467 10.855010570749299 0 0 0
401 2 7.207728753731514 0.3736639195773647 7.206966779956271 0 0 0
402 2 9.039339764479532 1.8805692121911561 7.2375001335890445 0 0 0
403 2 9.00437144956745 0.36001879413049814 9.024081840149883 0 0 0
404 2 7.223631296702825 1.954461272900465 9.019159654574633 0 0 0
405 2 10.842967081996061 0.37279482861681973 7.257174966848572 0 0 0
408 2 10.80270076453615 1.819211093879577 9.090803372991978 0 0 0
429 2 7.203525518495245 3.66095788944639 7.156393409539843 0 0 0
430 2 9.089339859437635 5.4703959040557395 7.18556098408843 0 0 0
431 2 9.117918515568915 3.639137324778503 9.084040835276744 0 0 0
432 2 7.250458828380343 5.4304441574610305 9.024279652139134 0 0 0
433 2 10.846670194293509 3.6659441305094953 7.2023949593616505 0 0 0
436 2 10.895407722997442 5.496984649910128 9.103095982382348 0 0 0
597 3 7.227223671642395 0.4143927415720158 10.829755769767024 0 0 0
598 3 9.023141276954716 1.8823582779271069 10.857277536336536 0 0 0
601 3 10.844406632834955 0.4137236005146664 10.888206737303767 0 0 0
625 3 7.231329500795755 3.6277850269058427 10.850550076715098 0 0 0
626 3 9.03581543751748 5.427276042543661 10.858016123413188 0 0 0
629 3 10.858221971678665 3.620494909526184 10.859900009347148 0 0 0
406 2 12.624896194151427 1.9014831728382826 7.170575110353446 0 0 0
407 2 12.670531513047733 0.4304841936596367 9.01526719001847 0 0 0
409 2 14.416277330874799 0.36779147013253755 7.308907343136951 0 0 0
410 2 16.297168720812248 1.814156356121918 7.251984089319957 0 0 0
411 2 16.234598953421116 0.31389166136873853 9.090834480434133 0 0 0
412 2 14.454423839153304 1.950228301539367 9.088276721691592 0 0 0
413 2 18.13116665521905 0.34561710844655297 7.241355680380426 0 0 0
416 2 18.100062637870785 1.8359499628091862 9.04774476235203 0 0 0
434 2 12.623126766219917 5.418496230479917 7.224893952631743 0 0 0
435 2 12.577866772947715 3.560099781256042 8.994399199881848 0 0 0
437 2 14.412426058453992 3.574365977639043 7.267962413852331 0 0 0
438 2 16.325549342248372 5.396804277957897 7.262013573101509 0 0 0
439 2 16.279256936729453 3.665778276150679 9.089436427556969 0 0 0
440 2 14.490519786336959 5.4717767000097295 9.079716314027227 0 0 0
441 2 18.04482090444403 3.6061069150311056 7.252974518096492 0 0 0
444 2 18.096538453786877 5.370648036949259 9.104709526356613 0 0 0
602 3 12.647537326473385 1.8883093601688954 10.857343053944458 0 0 0
605 3 14.455545415497445 0.42929804851506154 10.871444924611861 0 0 0
606 3 16.272223651071677 1.89272325308734 10.844887861261789 0 0 0
609 3 18.07210646119235 0.4090530766211437 10.862552821563858 0 0 0
630 3 12.663172927267745 5.422183021112075 10.83909289607381 0 0 0
633 3 14.448700216714935 3.6327241804262065 10.851011164482289 0 0 0
634 3 16.270838789255222 5.433048572956643 10.870819914647301 0 0 0
637 3 18.08002760839588 3.604447264054027 10.863756762688343 0 0 0
414 2 19.932511549365973 1.8198436514129643 7.175705341353083 0 0 0
415 2 19.872105355859045 0.295276606087508 9.085125293076889 0 0 0
417 2 21.739784069135585 0.35439607449568583 7.237368493810901 0 0 0
418 2 23.505419551883055 1.8960076757876345 7.185036167686196 0 0 0
419 2 23.440156052026666 0.33433951968683745 9.049268379646207 0 0 0
420 2 21.629825414330117 1.9298822151981043 8.999133770438991 0 0 0
442 2 19.894589447099055 5.442011827286828 7.196128883488758 0 0 0
443 2 19.836211358073516 3.5719186070750664 9.002523107164148 0 0 0
445 2 21.714744930918435 3.58224804906555 7.242356849187602 0 0 0
446 2 23.470222708530535 5.439382373770584 7.250966749636387 0 0 0
447 2 23.531433563420382 3.573044427453745 9.065921196724506 0 0 0
448 2 21.725493649883845 5.427903629184851 9.074488869077797 0 0 0
610 3 19.88721473414407 1.8791177327740858 10.845658435850558 0 0 0
613 3 21.687828727726217 0.4127603787911843 10.820385510487506 0 0 0
614 3 23.495252930753296 1.8795337994708596 10.832796962942425 0 0 0
638 3 19.89061573200116 5.413088503251724 10.849148531582536 0 0 0
641 3 21.684267543060475 3.6183302601060428 10.843377387505338 0 0 0
642 3 23.4952732939463 5.414498326787046 10.871981045060206 0 0 0
449 2 0.286204888697241 7.219727652130836 7.224724574072225 0 0 0
450 2 1.873423270664078 9.01189669980313 7.229900978028964 0 0 0
451 2 1.9368964671517561 7.256051893188692 8.984199821390002 0 0 0
452 2 0.35574604666674076 8.98615461789447 9.041242530306537 0 0 0
453 2 3.6612379953784444 7.174460055443773 7.2118148385493885 0 0 0
454 2 5.440338667106514 8.982664430608956 7.289774545329416 0 0 0
455 2 5.4839781230314175 7.173076694149512 9.022499772317694 0 0 0
456 2 3.5684488380081847 9.036455057430945 9.05676153949792 0 0 0
477 2 0.3657222737887073 10.800769686940841 7.147930577764985 0 0 0
479 2 1.8336265098952447 10.850878511508869 8.987748204645689 0 0 0
481 2 3.702776944293853 10.759587099910561 7.179685263215293 0 0 0
483 2 5.352802243491994 10.782468455304905 9.002004728598655 0 0 0
645 3 0.43049126642199653 7.219585220901786 10.828164834979258 0 0 0
646 3 1.883606986724214 9.04208557125199 10.850256358403598 0 0 0
649 3 3.6263338263649456 7.242496252724268 10.856217104904461 0 0 0
650 3 5.423165734931362 9.030418883080646 10.832981486758337 0 0 0
673 3 0.4152830364824679 10.840144389087518 10.84965809957563 0 0 0
677 3 3.6119327129836085 10.85294410442614 10.837371611900624 0 0 0
457 2 7.232845553287559 7.269624863861924 7.178445660301416 0 0 0
458 2 8.966581207778924 9.11864181604909 7.292158912561887 0 0 0
459 2 9.011477379780414 7.167448657264912 9.001301762740994 0 0 0
460 2 7.298958644432191 9.000960784433952 9.087531466257778 0 0 0
461 2 10.838399858314594 7.298042054233986 7.242265384342423 0 0 0
464 2 10.812829396344563 9.084712175713294 9.113306118603768 0 0 0
485 2 7.1728971836533875 10.918799395532735 7.193094264502765 0 0 0
487 2 8.993120074950387 10.878826259177064 9.04637990899511 0 0 0
489 2 10.779778550951946 10.815348489240185 7.238689694633808 0 0 0
653 3 7.2323178894474225 7.225098253555929 10.859264668433715 0 0 0
654 3 9.040964454890057 9.031309638269173 10.85664616801975 0 0 0
657 3 10.845057985563498 7.241547250040363 10.848924472330706 0 0 0
681 3 7.2165983063505355 10.842254601123539 10.843597151448595 0 0 0
685 3 10.840515737918079 10.848138051454244 10.864917913761518 0 0 0
462 2 12.623052495528977 9.128193362265447 7.263524023599425 0 0 0
463 2 12.686798328624626 7.301686919857821 9.003400909783547 0 0 0
465 2 14.424319021385568 7.187683198942028 7.206815705917771 0 0 0
466 2 16.2373181202773 8.951190477212746 7.263510910278433 0 0 0
467 2 16.272848802862825 7.217260760233916 9.03409545080295 0 0 0
468 2 14.444469273951665 9.078977224190414 9.053069552313282 0 0 0
469 2 18.13341844959246 7.202895924049433 7.208310947967483 0 0 0
472 2 18.053687491471486 9.109411960799337 9.088544827591782 0 0 0
491 2 12.660817873919056 10.821891796708554 9.058111937545203 0 0 0
493 2 14.542020399222155 10.912310155345269 7.22934621590132 0 0 0
495 2 16.273259068623315 10.868944898857158 8.991052698212034 0 0 0
497 2 18.05950211829842 10.822993621655007 7.204858067532032 0 0 0
658 3 12.653549751742773 9.035549439469653 10.86052876064694 0 0 0
661 3 14.45898727963221 7.241624500843688 10.854229462724243 0 0 0
662 3 16.261180258964792 9.041551954855397 10.841138867992147 0 0 0
665 3 18.06838055505977 7.233733112356321 10.847133841533806 0 0 0
689 3 14.467786372208392 10.85551560225179 10.841418757739698 0 0 0
693 3 18.066822664577913 10.857960065687076 10.859664470249674 0 0 0
470 2 19.81188649292152 9.00391887321595 7.315113801722864 0 0 0
471 2 19.847128097732696 7.212893881729492 9.089315543379517 0 0 0
473 2 21.609382915063033 7.275984813619588 7.257143769050313 0 0 0
474 2 23.51829541671936 9.017292786673245 7.262043963342654 0 0 0
475 2 23.514141338751525 7.1855246960997015 9.067721481327164 0 0 0
476 2 21.711126221478672 9.006023445897764 9.013816602171438 0 0 0
499 2 19.840239741765263 10.893543716982018 9.05042294148159 0 0 0
501 2 21.632303667064278 10.876320811021618 7.172238726724252 0 0 0
503 2 23.435309497950186 10.908431926151312 8.964744571951124 0 0 0
666 3 19.889582776492148 9.043583859563238 10.841967988670161 0 0 0
669 3 21.690211317346694 7.235317325083215 10.853396638883316 0 0 0
670 3 23.50046092217224 9.045178149430912 10.828279073992494 0 0 0
697 3 21.6863325166032 10.82722840867572 10.849454472607325 0 0 0
478 2 1.9207485338933339 12.561289598502317 7.19785462072375 0 0 0
480 2 0.40678940582355466 12.726622884640802 9.060762143830134 0 0 0
482 2 5.398003882621719 12.655492367026245 7.228698566433797 0 0 0
484 2 3.5668545644650607 12.672715525008437 9.00226899025541 0 0 0
505 2 0.36620928803935915 14.465654122000167 7.219380310756531 0 0 0
506 2 1.8929503908089313 16.302646152074633 7.1677875831777085 0 0 0
507 2 1.918334504459346 14.489525917575335 9.046456157056095 0 0 0
508 2 0.31698139928010716 16.27368547270534 9.060594819475801 0 0 0
509 2 3.642606847793328 14.427523895851543 7.250806567777839 0 0 0
510 2 5.454070615741525 16.3251622165371 7.195553891981725 0 0 0
511 2 5.462891787754823 14.524434602435344 9.07995733835374 0 0 0
512 2 3.6202157955401355 16.262259879249083 8.977521396888791 0 0 0
533 2 0.28340275247246066 18.04772638421628 7.254049516833743 0 0 0
535 2 1.8607414693689568 18.020101880203423 8.975280936421685 0 0 0
537 2 3.6905925872029544 18.051862671205708 7.244644056247782 0 0 0
539 2 5.361562066816574 18.12312392573351 9.089989681373469 0 0 0
674 3 1.8994367823820162 12.645507089730417 10.86093479210414 0 0 0
678 3 5.4130351943162935 12.645086716902671 10.828569543765584 0 0 0
701 3 0.42565303698470097 14.465927684186394 10.866141495245724 0 0 0
702 3 1.8893002119345714 16.272547545699997 10.838392220355834 0 0 0
705 3 3.6272132861847313 14.463548224207498 10.849150927190857 0 0 0
706 3 5.423897550917819 16.276893783483416 10.844138213082184 0 0 0
729 3 0.4103945699113146 18.083229688290587 10.821388641937851 0 0 0
733 3 3.6022019687520324 18.058951666192442 10.857272191165361 0 0 0
486 2 9.119131969719598 12.595834247989426 7.16080943477562 0 0 0
488 2 7.217090624207097 12.63109532579489 9.054958350360337 0 0 0
492 2 10.913573184420637 12.587922648212693 9.073356710596224 0 0 0
513 2 7.2365255112739275 14.434030637975738 7.264703507256682 0 0 0
514 2 9.102293001918655 16.23826551963201 7.259550368892641 0 0 0
515 2 9.080184897610838 14.37072505866037 9.048625010735394 0 0 0
516 2 7.306065406087156 16.341383099419858 9.039302249029287 0 0 0
517 2 10.844633189452638 14.510982558008484 7.156377643493287 0 0 0
520 2 10.826133207830637 16.286622181294113 9.04676393163071 0 0 0
541 2 7.188852532019598 18.122111373580275 7.230562216428835 0 0 0
543 2 9.06799681268869 18.05230109700203 9.012290561397247 0 0 0
545 2 10.882160780425423 18.060621349875664 7.2515592524866745 0 0 0
682 3 9.040953284577972 12.64601444564781 10.854987863268285 0 0 0
709 3 7.238158398331033 14.465024514448919 10.84547157750883 0 0 0
710 3 9.04152564706107 16.261070897303785 10.854751290224772 0 0 0