
15 atoms
2 atom types
   0.0000000000    4.3732525185 xlo xhi
   0.0000000000    3.7873477777 ylo yhi
   0.0000000000   30.1941752312 zlo zhi
  -2.1866268355   -0.0000000001   -0.6040043177 xy xz yz

Atoms # atomic

     1      1   -0.0000025708    2.4843864933    2.0252592065
     2      1   -0.0000025708    2.3640781953    8.0394709029
     3      1    0.0000000160   -0.2418481233   12.0899893160
     4      1    0.0000000244   -0.3621561242   18.1041859152
     5      1    2.1866282537    0.8192652647   22.1547043283
     6      1    2.1866282537    0.6989566646   28.1689311218
     7      2    2.1866282538    1.1871117463    3.7660590882
     8      2    0.0000000246    0.0000000388    0.0000001921
     9      2    0.0000000165   -0.1259982818    6.2986559241
    10      2   -0.0000025709    2.2482283551   13.8308042948
    11      2    2.1866282537    1.0611134255   10.0647150123
    12      2    2.1866282537    0.9351151048   16.3633709365
    13      2    0.0000000253   -0.4780059632   23.8955193071
    14      2   -0.0000025709    2.1222300344   20.1294602189
    15      2   -0.0000025709    1.9962317138   26.4281161430
