
15 atoms
2 atom types
   0.0000000000    4.3732525185 xlo xhi
   0.0000000000    3.7873477777 ylo yhi
   0.0000000000   30.3508413310 zlo zhi
  -2.1866268355   -0.0000000001   -0.0000000001 xy xz yz

Atoms # atomic

     1      1   -0.0000025708    2.5248997809    2.0357675068
     2      1   -0.0000025708    2.5248997809    8.0811846620
     3      1    0.0000000160    0.0000000375   12.1527196757
     4      1    0.0000000244    0.0000000326   18.1981216553
     5      1    2.1866282537    1.2624479967   22.2696566690
     6      1    2.1866282537    1.2624479966   28.3150889996
     7      2    2.1866282538    1.2624479968    3.7855997375
     8      2    0.0000000246    0.0000000426    0.0000001931
     9      2    0.0000000165    0.0000000389    6.3313372558
    10      2   -0.0000025709    2.5248997808   13.9025670818
    11      2    2.1866282537    1.2624479967   10.1169369934
    12      2    2.1866282537    1.2624479967   16.4482742493
    13      2    0.0000000253    0.0000000337   24.0195040752
    14      2   -0.0000025709    2.5248997808   20.2339043376
    15      2   -0.0000025709    2.5248997808   26.5652415935
