
15 atoms
2 atom types
   0.0000000000    4.3439009461 xlo xhi
   0.0000000000    3.7619285703 ylo yhi
   0.0000000000   29.9975237587 zlo zhi
  -2.1719510454   -0.0000000001   -0.0000000001 xy xz yz

Atoms # atomic

     1      1   -0.0000025535    2.5079536342    2.0120689073
     2      1   -0.0000025535    2.5079536342    7.9871106785
     3      1    0.0000000159    0.0000000372   12.0112484932
     4      1    0.0000000242    0.0000000324   17.9862752655
     5      1    2.1719524541    1.2539749361   22.0104130802
     6      1    2.1719524541    1.2539749360   27.9854698501
     7      2    2.1719524542    1.2539749362    3.7415311434
     8      2    0.0000000244    0.0000000423    0.0000001908
     9      2    0.0000000164    0.0000000386    6.2576334436
    10      2   -0.0000025536    2.5079536341   13.7407257280
    11      2    2.1719524541    1.2539749361    9.9991645870
    12      2    2.1719524541    1.2539749361   16.2567980308
    13      2    0.0000000251    0.0000000335   23.7398903150
    14      2   -0.0000025536    2.5079536341   19.9983591716
    15      2   -0.0000025536    2.5079536341   26.2559926153
