LAMMPS data file via write_data, version 2 Aug 2023, timestep = 0, units = metal

4000 atoms
2 atom types

0 378.7347 xlo xhi
0 17.493 ylo yhi
0 117.6004 zlo zhi

Masses

1 208.98038
2 127.6

Atoms # atomic

1 1 1.261186551 2.186625 51.740647988 0 0 0
2 1 5.048533551 0 51.740647988 0 0 0
3 1 0 0 55.791981768 0 0 0
4 1 3.787347 2.186625 55.791981768 0 0 0
5 1 0 0 61.808418232 0 0 0
6 1 3.787347 2.186625 61.808418232 0 0 0
7 1 2.526160449 0 65.859752012 0 0 0
8 1 6.313507449 2.186625 65.859752012 0 0 0
9 2 0 0 50.000162068 0 0 0
10 2 3.787347 2.186625 50.000162068 0 0 0
11 2 1.261186551 2.186625 57.533643692 0 0 0
12 2 5.048533551 0 57.533643692 0 0 0
13 2 2.526160449 0 53.76690288 0 0 0
14 2 6.313507449 2.186625 53.76690288 0 0 0
15 2 2.526160449 0 60.066756308 0 0 0
16 2 6.313507449 2.186625 60.066756308 0 0 0
17 2 0 0 67.600237932 0 0 0
18 2 3.787347 2.186625 67.600237932 0 0 0
19 2 1.261186551 2.186625 63.83349712 0 0 0
20 2 5.048533551 0 63.83349712 0 0 0
21 1 8.835880551 2.186625 51.740647988 0 0 0
22 1 12.623227551 0 51.740647988 0 0 0
23 1 7.574694 0 55.791981768 0 0 0
24 1 11.362041 2.186625 55.791981768 0 0 0
25 1 7.574694 0 61.808418232 0 0 0
26 1 11.362041 2.186625 61.808418232 0 0 0
27 1 10.100854449 0 65.859752012 0 0 0
28 1 13.888201449 2.186625 65.859752012 0 0 0
29 2 7.574694 0 50.000162068 0 0 0
30 2 11.362041 2.186625 50.000162068 0 0 0
31 2 8.835880551 2.186625 57.533643692 0 0 0
32 2 12.623227551 0 57.533643692 0 0 0
33 2 10.100854449 0 53.76690288 0 0 0
34 2 13.888201449 2.186625 53.76690288 0 0 0
35 2 10.100854449 0 60.066756308 0 0 0
36 2 13.888201449 2.186625 60.066756308 0 0 0
37 2 7.574694 0 67.600237932 0 0 0
38 2 11.362041 2.186625 67.600237932 0 0 0
39 2 8.835880551 2.186625 63.83349712 0 0 0
40 2 12.623227551 0 63.83349712 0 0 0
41 1 16.410574551 2.186625 51.740647988 0 0 0
42 1 20.197921551 0 51.740647988 0 0 0
43 1 15.149388 0 55.791981768 0 0 0
44 1 18.936735 2.186625 55.791981768 0 0 0
45 1 15.149388 0 61.808418232 0 0 0
46 1 18.936735 2.186625 61.808418232 0 0 0
47 1 17.675548449 0 65.859752012 0 0 0
48 1 21.462895449 2.186625 65.859752012 0 0 0
49 2 15.149388 0 50.000162068 0 0 0
50 2 18.936735 2.186625 50.000162068 0 0 0
51 2 16.410574551 2.186625 57.533643692 0 0 0
52 2 20.197921551 0 57.533643692 0 0 0
53 2 17.675548449 0 53.76690288 0 0 0
54 2 21.462895449 2.186625 53.76690288 0 0 0
55 2 17.675548449 0 60.066756308 0 0 0
56 2 21.462895449 2.186625 60.066756308 0 0 0
57 2 15.149388 0 67.600237932 0 0 0
58 2 18.936735 2.186625 67.600237932 0 0 0
59 2 16.410574551 2.186625 63.83349712 0 0 0
60 2 20.197921551 0 63.83349712 0 0 0
61 1 23.985268551 2.186625 51.740647988 0 0 0
62 1 27.772615551 0 51.740647988 0 0 0
63 1 22.724082 0 55.791981768 0 0 0
64 1 26.511429 2.186625 55.791981768 0 0 0
65 1 22.724082 0 61.808418232 0 0 0
66 1 26.511429 2.186625 61.808418232 0 0 0
67 1 25.250242449 0 65.859752012 0 0 0
68 1 29.037589449 2.186625 65.859752012 0 0 0
69 2 22.724082 0 50.000162068 0 0 0
70 2 26.511429 2.186625 50.000162068 0 0 0
71 2 23.985268551 2.186625 57.533643692 0 0 0
72 2 27.772615551 0 57.533643692 0 0 0
73 2 25.250242449 0 53.76690288 0 0 0
74 2 29.037589449 2.186625 53.76690288 0 0 0
75 2 25.250242449 0 60.066756308 0 0 0
76 2 29.037589449 2.186625 60.066756308 0 0 0
77 2 22.724082 0 67.600237932 0 0 0
78 2 26.511429 2.186625 67.600237932 0 0 0
79 2 23.985268551 2.186625 63.83349712 0 0 0
80 2 27.772615551 0 63.83349712 0 0 0
81 1 31.559962551 2.186625 51.740647988 0 0 0
82 1 35.347309551 0 51.740647988 0 0 0
83 1 30.298776 0 55.791981768 0 0 0
84 1 34.086123 2.186625 55.791981768 0 0 0
85 1 30.298776 0 61.808418232 0 0 0
86 1 34.086123 2.186625 61.808418232 0 0 0
87 1 32.824936449 0 65.859752012 0 0 0
88 1 36.612283449 2.186625 65.859752012 0 0 0
89 2 30.298776 0 50.000162068 0 0 0
90 2 34.086123 2.186625 50.000162068 0 0 0
91 2 31.559962551 2.186625 57.533643692 0 0 0
92 2 35.347309551 0 57.533643692 0 0 0
93 2 32.824936449 0 53.76690288 0 0 0
94 2 36.612283449 2.186625 53.76690288 0 0 0
95 2 32.824936449 0 60.066756308 0 0 0
96 2 36.612283449 2.186625 60.066756308 0 0 0
97 2 30.298776 0 67.600237932 0 0 0
98 2 34.086123 2.186625 67.600237932 0 0 0
99 2 31.559962551 2.186625 63.83349712 0 0 0
100 2 35.347309551 0 63.83349712 0 0 0
101 1 39.134656551 2.186625 51.740647988 0 0 0
102 1 42.922003551 0 51.740647988 0 0 0
103 1 37.87347 0 55.791981768 0 0 0
104 1 41.660817 2.186625 55.791981768 0 0 0
105 1 37.87347 0 61.808418232 0 0 0
106 1 41.660817 2.186625 61.808418232 0 0 0
107 1 40.399630449 0 65.859752012 0 0 0
108 1 44.186977449 2.186625 65.859752012 0 0 0
109 2 37.87347 0 50.000162068 0 0 0
110 2 41.660817 2.186625 50.000162068 0 0 0
111 2 39.134656551 2.186625 57.533643692 0 0 0
112 2 42.922003551 0 57.533643692 0 0 0
113 2 40.399630449 0 53.76690288 0 0 0
114 2 44.186977449 2.186625 53.76690288 0 0 0
115 2 40.399630449 0 60.066756308 0 0 0
116 2 44.186977449 2.186625 60.066756308 0 0 0
117 2 37.87347 0 67.600237932 0 0 0
118 2 41.660817 2.186625 67.600237932 0 0 0
119 2 39.134656551 2.186625 63.83349712 0 0 0
120 2 42.922003551 0 63.83349712 0 0 0
121 1 46.709350551 2.186625 51.740647988 0 0 0
122 1 50.496697551 0 51.740647988 0 0 0
123 1 45.448164 0 55.791981768 0 0 0
124 1 49.235511 2.186625 55.791981768 0 0 0
125 1 45.448164 0 61.808418232 0 0 0
126 1 49.235511 2.186625 61.808418232 0 0 0
127 1 47.974324449 0 65.859752012 0 0 0
128 1 51.761671449 2.186625 65.859752012 0 0 0
129 2 45.448164 0 50.000162068 0 0 0
130 2 49.235511 2.186625 50.000162068 0 0 0
131 2 46.709350551 2.186625 57.533643692 0 0 0
132 2 50.496697551 0 57.533643692 0 0 0
133 2 47.974324449 0 53.76690288 0 0 0
134 2 51.761671449 2.186625 53.76690288 0 0 0
135 2 47.974324449 0 60.066756308 0 0 0
136 2 51.761671449 2.186625 60.066756308 0 0 0
137 2 45.448164 0 67.600237932 0 0 0
138 2 49.235511 2.186625 67.600237932 0 0 0
139 2 46.709350551 2.186625 63.83349712 0 0 0
140 2 50.496697551 0 63.83349712 0 0 0
141 1 54.284044551 2.186625 51.740647988 0 0 0
142 1 58.071391551 0 51.740647988 0 0 0
143 1 53.022858 0 55.791981768 0 0 0
144 1 56.810205 2.186625 55.791981768 0 0 0
145 1 53.022858 0 61.808418232 0 0 0
146 1 56.810205 2.186625 61.808418232 0 0 0
147 1 55.549018449 0 65.859752012 0 0 0
148 1 59.336365449 2.186625 65.859752012 0 0 0
149 2 53.022858 0 50.000162068 0 0 0
150 2 56.810205 2.186625 50.000162068 0 0 0
151 2 54.284044551 2.186625 57.533643692 0 0 0
152 2 58.071391551 0 57.533643692 0 0 0
153 2 55.549018449 0 53.76690288 0 0 0
154 2 59.336365449 2.186625 53.76690288 0 0 0
155 2 55.549018449 0 60.066756308 0 0 0
156 2 59.336365449 2.186625 60.066756308 0 0 0
157 2 53.022858 0 67.600237932 0 0 0
158 2 56.810205 2.186625 67.600237932 0 0 0
159 2 54.284044551 2.186625 63.83349712 0 0 0
160 2 58.071391551 0 63.83349712 0 0 0
161 1 61.858738551 2.186625 51.740647988 0 0 0
162 1 65.646085551 0 51.740647988 0 0 0
163 1 60.597552 0 55.791981768 0 0 0
164 1 64.384899 2.186625 55.791981768 0 0 0
165 1 60.597552 0 61.808418232 0 0 0
166 1 64.384899 2.186625 61.808418232 0 0 0
167 1 63.123712449 0 65.859752012 0 0 0
168 1 66.911059449 2.186625 65.859752012 0 0 0
169 2 60.597552 0 50.000162068 0 0 0
170 2 64.384899 2.186625 50.000162068 0 0 0
171 2 61.858738551 2.186625 57.533643692 0 0 0
172 2 65.646085551 0 57.533643692 0 0 0
173 2 63.123712449 0 53.76690288 0 0 0
174 2 66.911059449 2.186625 53.76690288 0 0 0
175 2 63.123712449 0 60.066756308 0 0 0
176 2 66.911059449 2.186625 60.066756308 0 0 0
177 2 60.597552 0 67.600237932 0 0 0
178 2 64.384899 2.186625 67.600237932 0 0 0
179 2 61.858738551 2.186625 63.83349712 0 0 0
180 2 65.646085551 0 63.83349712 0 0 0
181 1 69.433432551 2.186625 51.740647988 0 0 0
182 1 73.220779551 0 51.740647988 0 0 0
183 1 68.172246 0 55.791981768 0 0 0
184 1 71.959593 2.186625 55.791981768 0 0 0
185 1 68.172246 0 61.808418232 0 0 0
186 1 71.959593 2.186625 61.808418232 0 0 0
187 1 70.698406449 0 65.859752012 0 0 0
188 1 74.485753449 2.186625 65.859752012 0 0 0
189 2 68.172246 0 50.000162068 0 0 0
190 2 71.959593 2.186625 50.000162068 0 0 0
191 2 69.433432551 2.186625 57.533643692 0 0 0
192 2 73.220779551 0 57.533643692 0 0 0
193 2 70.698406449 0 53.76690288 0 0 0
194 2 74.485753449 2.186625 53.76690288 0 0 0
195 2 70.698406449 0 60.066756308 0 0 0
196 2 74.485753449 2.186625 60.066756308 0 0 0
197 2 68.172246 0 67.600237932 0 0 0
198 2 71.959593 2.186625 67.600237932 0 0 0
199 2 69.433432551 2.186625 63.83349712 0 0 0
200 2 73.220779551 0 63.83349712 0 0 0
201 1 77.008126551 2.186625 51.740647988 0 0 0
202 1 80.795473551 0 51.740647988 0 0 0
203 1 75.74694 0 55.791981768 0 0 0
204 1 79.534287 2.186625 55.791981768 0 0 0
205 1 75.74694 0 61.808418232 0 0 0
206 1 79.534287 2.186625 61.808418232 0 0 0
207 1 78.273100449 0 65.859752012 0 0 0
208 1 82.060447449 2.186625 65.859752012 0 0 0
209 2 75.74694 0 50.000162068 0 0 0
210 2 79.534287 2.186625 50.000162068 0 0 0
211 2 77.008126551 2.186625 57.533643692 0 0 0
212 2 80.795473551 0 57.533643692 0 0 0
213 2 78.273100449 0 53.76690288 0 0 0
214 2 82.060447449 2.186625 53.76690288 0 0 0
215 2 78.273100449 0 60.066756308 0 0 0
216 2 82.060447449 2.186625 60.066756308 0 0 0
217 2 75.74694 0 67.600237932 0 0 0
218 2 79.534287 2.186625 67.600237932 0 0 0
219 2 77.008126551 2.186625 63.83349712 0 0 0
220 2 80.795473551 0 63.83349712 0 0 0
221 1 84.582820551 2.186625 51.740647988 0 0 0
222 1 88.370167551 0 51.740647988 0 0 0
223 1 83.321634 0 55.791981768 0 0 0
224 1 87.108981 2.186625 55.791981768 0 0 0
225 1 83.321634 0 61.808418232 0 0 0
226 1 87.108981 2.186625 61.808418232 0 0 0
227 1 85.847794449 0 65.859752012 0 0 0
228 1 89.635141449 2.186625 65.859752012 0 0 0
229 2 83.321634 0 50.000162068 0 0 0
230 2 87.108981 2.186625 50.000162068 0 0 0
231 2 84.582820551 2.186625 57.533643692 0 0 0
232 2 88.370167551 0 57.533643692 0 0 0
233 2 85.847794449 0 53.76690288 0 0 0
234 2 89.635141449 2.186625 53.76690288 0 0 0
235 2 85.847794449 0 60.066756308 0 0 0
236 2 89.635141449 2.186625 60.066756308 0 0 0
237 2 83.321634 0 67.600237932 0 0 0
238 2 87.108981 2.186625 67.600237932 0 0 0
239 2 84.582820551 2.186625 63.83349712 0 0 0
240 2 88.370167551 0 63.83349712 0 0 0
241 1 92.157514551 2.186625 51.740647988 0 0 0
242 1 95.944861551 0 51.740647988 0 0 0
243 1 90.896328 0 55.791981768 0 0 0
244 1 94.683675 2.186625 55.791981768 0 0 0
245 1 90.896328 0 61.808418232 0 0 0
246 1 94.683675 2.186625 61.808418232 0 0 0
247 1 93.422488449 0 65.859752012 0 0 0
248 1 97.209835449 2.186625 65.859752012 0 0 0
249 2 90.896328 0 50.000162068 0 0 0
250 2 94.683675 2.186625 50.000162068 0 0 0
251 2 92.157514551 2.186625 57.533643692 0 0 0
252 2 95.944861551 0 57.533643692 0 0 0
253 2 93.422488449 0 53.76690288 0 0 0
254 2 97.209835449 2.186625 53.76690288 0 0 0
255 2 93.422488449 0 60.066756308 0 0 0
256 2 97.209835449 2.186625 60.066756308 0 0 0
257 2 90.896328 0 67.600237932 0 0 0
258 2 94.683675 2.186625 67.600237932 0 0 0
259 2 92.157514551 2.186625 63.83349712 0 0 0
260 2 95.944861551 0 63.83349712 0 0 0
261 1 99.732208551 2.186625 51.740647988 0 0 0
262 1 103.519555551 0 51.740647988 0 0 0
263 1 98.471022 0 55.791981768 0 0 0
264 1 102.258369 2.186625 55.791981768 0 0 0
265 1 98.471022 0 61.808418232 0 0 0
266 1 102.258369 2.186625 61.808418232 0 0 0
267 1 100.997182449 0 65.859752012 0 0 0
268 1 104.784529449 2.186625 65.859752012 0 0 0
269 2 98.471022 0 50.000162068 0 0 0
270 2 102.258369 2.186625 50.000162068 0 0 0
271 2 99.732208551 2.186625 57.533643692 0 0 0
272 2 103.519555551 0 57.533643692 0 0 0
273 2 100.997182449 0 53.76690288 0 0 0
274 2 104.784529449 2.186625 53.76690288 0 0 0
275 2 100.997182449 0 60.066756308 0 0 0
276 2 104.784529449 2.186625 60.066756308 0 0 0
277 2 98.471022 0 67.600237932 0 0 0
278 2 102.258369 2.186625 67.600237932 0 0 0
279 2 99.732208551 2.186625 63.83349712 0 0 0
280 2 103.519555551 0 63.83349712 0 0 0
281 1 107.306902551 2.186625 51.740647988 0 0 0
282 1 111.094249551 0 51.740647988 0 0 0
283 1 106.045716 0 55.791981768 0 0 0
284 1 109.833063 2.186625 55.791981768 0 0 0
285 1 106.045716 0 61.808418232 0 0 0
286 1 109.833063 2.186625 61.808418232 0 0 0
287 1 108.571876449 0 65.859752012 0 0 0
288 1 112.359223449 2.186625 65.859752012 0 0 0
289 2 106.045716 0 50.000162068 0 0 0
290 2 109.833063 2.186625 50.000162068 0 0 0
291 2 107.306902551 2.186625 57.533643692 0 0 0
292 2 111.094249551 0 57.533643692 0 0 0
293 2 108.571876449 0 53.76690288 0 0 0
294 2 112.359223449 2.186625 53.76690288 0 0 0
295 2 108.571876449 0 60.066756308 0 0 0
296 2 112.359223449 2.186625 60.066756308 0 0 0
297 2 106.045716 0 67.600237932 0 0 0
298 2 109.833063 2.186625 67.600237932 0 0 0
299 2 107.306902551 2.186625 63.83349712 0 0 0
300 2 111.094249551 0 63.83349712 0 0 0
301 1 114.881596551 2.186625 51.740647988 0 0 0
302 1 118.668943551 0 51.740647988 0 0 0
303 1 113.62041 0 55.791981768 0 0 0
304 1 117.407757 2.186625 55.791981768 0 0 0
305 1 113.62041 0 61.808418232 0 0 0
306 1 117.407757 2.186625 61.808418232 0 0 0
307 1 116.146570449 0 65.859752012 0 0 0
308 1 119.933917449 2.186625 65.859752012 0 0 0
309 2 113.62041 0 50.000162068 0 0 0
310 2 117.407757 2.186625 50.000162068 0 0 0
311 2 114.881596551 2.186625 57.533643692 0 0 0
312 2 118.668943551 0 57.533643692 0 0 0
313 2 116.146570449 0 53.76690288 0 0 0
314 2 119.933917449 2.186625 53.76690288 0 0 0
315 2 116.146570449 0 60.066756308 0 0 0
316 2 119.933917449 2.186625 60.066756308 0 0 0
317 2 113.62041 0 67.600237932 0 0 0
318 2 117.407757 2.186625 67.600237932 0 0 0
319 2 114.881596551 2.186625 63.83349712 0 0 0
320 2 118.668943551 0 63.83349712 0 0 0
321 1 122.456290551 2.186625 51.740647988 0 0 0
322 1 126.243637551 0 51.740647988 0 0 0
323 1 121.195104 0 55.791981768 0 0 0
324 1 124.982451 2.186625 55.791981768 0 0 0
325 1 121.195104 0 61.808418232 0 0 0
326 1 124.982451 2.186625 61.808418232 0 0 0
327 1 123.721264449 0 65.859752012 0 0 0
328 1 127.508611449 2.186625 65.859752012 0 0 0
329 2 121.195104 0 50.000162068 0 0 0
330 2 124.982451 2.186625 50.000162068 0 0 0
331 2 122.456290551 2.186625 57.533643692 0 0 0
332 2 126.243637551 0 57.533643692 0 0 0
333 2 123.721264449 0 53.76690288 0 0 0
334 2 127.508611449 2.186625 53.76690288 0 0 0
335 2 123.721264449 0 60.066756308 0 0 0
336 2 127.508611449 2.186625 60.066756308 0 0 0
337 2 121.195104 0 67.600237932 0 0 0
338 2 124.982451 2.186625 67.600237932 0 0 0
339 2 122.456290551 2.186625 63.83349712 0 0 0
340 2 126.243637551 0 63.83349712 0 0 0
341 1 130.030984551 2.186625 51.740647988 0 0 0
342 1 133.818331551 0 51.740647988 0 0 0
343 1 128.769798 0 55.791981768 0 0 0
344 1 132.557145 2.186625 55.791981768 0 0 0
345 1 128.769798 0 61.808418232 0 0 0
346 1 132.557145 2.186625 61.808418232 0 0 0
347 1 131.295958449 0 65.859752012 0 0 0
348 1 135.083305449 2.186625 65.859752012 0 0 0
349 2 128.769798 0 50.000162068 0 0 0
350 2 132.557145 2.186625 50.000162068 0 0 0
351 2 130.030984551 2.186625 57.533643692 0 0 0
352 2 133.818331551 0 57.533643692 0 0 0
353 2 131.295958449 0 53.76690288 0 0 0
354 2 135.083305449 2.186625 53.76690288 0 0 0
355 2 131.295958449 0 60.066756308 0 0 0
356 2 135.083305449 2.186625 60.066756308 0 0 0
357 2 128.769798 0 67.600237932 0 0 0
358 2 132.557145 2.186625 67.600237932 0 0 0
359 2 130.030984551 2.186625 63.83349712 0 0 0
360 2 133.818331551 0 63.83349712 0 0 0
361 1 137.605678551 2.186625 51.740647988 0 0 0
362 1 141.393025551 0 51.740647988 0 0 0
363 1 136.344492 0 55.791981768 0 0 0
364 1 140.131839 2.186625 55.791981768 0 0 0
365 1 136.344492 0 61.808418232 0 0 0
366 1 140.131839 2.186625 61.808418232 0 0 0
367 1 138.870652449 0 65.859752012 0 0 0
368 1 142.657999449 2.186625 65.859752012 0 0 0
369 2 136.344492 0 50.000162068 0 0 0
370 2 140.131839 2.186625 50.000162068 0 0 0
371 2 137.605678551 2.186625 57.533643692 0 0 0
372 2 141.393025551 0 57.533643692 0 0 0
373 2 138.870652449 0 53.76690288 0 0 0
374 2 142.657999449 2.186625 53.76690288 0 0 0
375 2 138.870652449 0 60.066756308 0 0 0
376 2 142.657999449 2.186625 60.066756308 0 0 0
377 2 136.344492 0 67.600237932 0 0 0
378 2 140.131839 2.186625 67.600237932 0 0 0
379 2 137.605678551 2.186625 63.83349712 0 0 0
380 2 141.393025551 0 63.83349712 0 0 0
381 1 145.180372551 2.186625 51.740647988 0 0 0
382 1 148.967719551 0 51.740647988 0 0 0
383 1 143.919186 0 55.791981768 0 0 0
384 1 147.706533 2.186625 55.791981768 0 0 0
385 1 143.919186 0 61.808418232 0 0 0
386 1 147.706533 2.186625 61.808418232 0 0 0
387 1 146.445346449 0 65.859752012 0 0 0
388 1 150.232693449 2.186625 65.859752012 0 0 0
389 2 143.919186 0 50.000162068 0 0 0
390 2 147.706533 2.186625 50.000162068 0 0 0
391 2 145.180372551 2.186625 57.533643692 0 0 0
392 2 148.967719551 0 57.533643692 0 0 0
393 2 146.445346449 0 53.76690288 0 0 0
394 2 150.232693449 2.186625 53.76690288 0 0 0
395 2 146.445346449 0 60.066756308 0 0 0
396 2 150.232693449 2.186625 60.066756308 0 0 0
397 2 143.919186 0 67.600237932 0 0 0
398 2 147.706533 2.186625 67.600237932 0 0 0
399 2 145.180372551 2.186625 63.83349712 0 0 0
400 2 148.967719551 0 63.83349712 0 0 0
401 1 152.755066551 2.186625 51.740647988 0 0 0
402 1 156.542413551 0 51.740647988 0 0 0
403 1 151.49388 0 55.791981768 0 0 0
404 1 155.281227 2.186625 55.791981768 0 0 0
405 1 151.49388 0 61.808418232 0 0 0
406 1 155.281227 2.186625 61.808418232 0 0 0
407 1 154.020040449 0 65.859752012 0 0 0
408 1 157.807387449 2.186625 65.859752012 0 0 0
409 2 151.49388 0 50.000162068 0 0 0
410 2 155.281227 2.186625 50.000162068 0 0 0
411 2 152.755066551 2.186625 57.533643692 0 0 0
412 2 156.542413551 0 57.533643692 0 0 0
413 2 154.020040449 0 53.76690288 0 0 0
414 2 157.807387449 2.186625 53.76690288 0 0 0
415 2 154.020040449 0 60.066756308 0 0 0
416 2 157.807387449 2.186625 60.066756308 0 0 0
417 2 151.49388 0 67.600237932 0 0 0
418 2 155.281227 2.186625 67.600237932 0 0 0
419 2 152.755066551 2.186625 63.83349712 0 0 0
420 2 156.542413551 0 63.83349712 0 0 0
421 1 160.329760551 2.186625 51.740647988 0 0 0
422 1 164.117107551 0 51.740647988 0 0 0
423 1 159.068574 0 55.791981768 0 0 0
424 1 162.855921 2.186625 55.791981768 0 0 0
425 1 159.068574 0 61.808418232 0 0 0
426 1 162.855921 2.186625 61.808418232 0 0 0
427 1 161.594734449 0 65.859752012 0 0 0
428 1 165.382081449 2.186625 65.859752012 0 0 0
429 2 159.068574 0 50.000162068 0 0 0
430 2 162.855921 2.186625 50.000162068 0 0 0
431 2 160.329760551 2.186625 57.533643692 0 0 0
432 2 164.117107551 0 57.533643692 0 0 0
433 2 161.594734449 0 53.76690288 0 0 0
434 2 165.382081449 2.186625 53.76690288 0 0 0
435 2 161.594734449 0 60.066756308 0 0 0
436 2 165.382081449 2.186625 60.066756308 0 0 0
437 2 159.068574 0 67.600237932 0 0 0
438 2 162.855921 2.186625 67.600237932 0 0 0
439 2 160.329760551 2.186625 63.83349712 0 0 0
440 2 164.117107551 0 63.83349712 0 0 0
441 1 167.904454551 2.186625 51.740647988 0 0 0
442 1 171.691801551 0 51.740647988 0 0 0
443 1 166.643268 0 55.791981768 0 0 0
444 1 170.430615 2.186625 55.791981768 0 0 0
445 1 166.643268 0 61.808418232 0 0 0
446 1 170.430615 2.186625 61.808418232 0 0 0
447 1 169.169428449 0 65.859752012 0 0 0
448 1 172.956775449 2.186625 65.859752012 0 0 0
449 2 166.643268 0 50.000162068 0 0 0
450 2 170.430615 2.186625 50.000162068 0 0 0
451 2 167.904454551 2.186625 57.533643692 0 0 0
452 2 171.691801551 0 57.533643692 0 0 0
453 2 169.169428449 0 53.76690288 0 0 0
454 2 172.956775449 2.186625 53.76690288 0 0 0
455 2 169.169428449 0 60.066756308 0 0 0
456 2 172.956775449 2.186625 60.066756308 0 0 0
457 2 166.643268 0 67.600237932 0 0 0
458 2 170.430615 2.186625 67.600237932 0 0 0
459 2 167.904454551 2.186625 63.83349712 0 0 0
460 2 171.691801551 0 63.83349712 0 0 0
461 1 175.479148551 2.186625 51.740647988 0 0 0
462 1 179.266495551 0 51.740647988 0 0 0
463 1 174.217962 0 55.791981768 0 0 0
464 1 178.005309 2.186625 55.791981768 0 0 0
465 1 174.217962 0 61.808418232 0 0 0
466 1 178.005309 2.186625 61.808418232 0 0 0
467 1 176.744122449 0 65.859752012 0 0 0
468 1 180.531469449 2.186625 65.859752012 0 0 0
469 2 174.217962 0 50.000162068 0 0 0
470 2 178.005309 2.186625 50.000162068 0 0 0
471 2 175.479148551 2.186625 57.533643692 0 0 0
472 2 179.266495551 0 57.533643692 0 0 0
473 2 176.744122449 0 53.76690288 0 0 0
474 2 180.531469449 2.186625 53.76690288 0 0 0
475 2 176.744122449 0 60.066756308 0 0 0
476 2 180.531469449 2.186625 60.066756308 0 0 0
477 2 174.217962 0 67.600237932 0 0 0
478 2 178.005309 2.186625 67.600237932 0 0 0
479 2 175.479148551 2.186625 63.83349712 0 0 0
480 2 179.266495551 0 63.83349712 0 0 0
481 1 183.053842551 2.186625 51.740647988 0 0 0
482 1 186.841189551 0 51.740647988 0 0 0
483 1 181.792656 0 55.791981768 0 0 0
484 1 185.580003 2.186625 55.791981768 0 0 0
485 1 181.792656 0 61.808418232 0 0 0
486 1 185.580003 2.186625 61.808418232 0 0 0
487 1 184.318816449 0 65.859752012 0 0 0
488 1 188.106163449 2.186625 65.859752012 0 0 0
489 2 181.792656 0 50.000162068 0 0 0
490 2 185.580003 2.186625 50.000162068 0 0 0
491 2 183.053842551 2.186625 57.533643692 0 0 0
492 2 186.841189551 0 57.533643692 0 0 0
493 2 184.318816449 0 53.76690288 0 0 0
494 2 188.106163449 2.186625 53.76690288 0 0 0
495 2 184.318816449 0 60.066756308 0 0 0
496 2 188.106163449 2.186625 60.066756308 0 0 0
497 2 181.792656 0 67.600237932 0 0 0
498 2 185.580003 2.186625 67.600237932 0 0 0
499 2 183.053842551 2.186625 63.83349712 0 0 0
500 2 186.841189551 0 63.83349712 0 0 0
501 1 190.628536551 2.186625 51.740647988 0 0 0
502 1 194.415883551 0 51.740647988 0 0 0
503 1 189.36735 0 55.791981768 0 0 0
504 1 193.154697 2.186625 55.791981768 0 0 0
505 1 189.36735 0 61.808418232 0 0 0
506 1 193.154697 2.186625 61.808418232 0 0 0
507 1 191.893510449 0 65.859752012 0 0 0
508 1 195.680857449 2.186625 65.859752012 0 0 0
509 2 189.36735 0 50.000162068 0 0 0
510 2 193.154697 2.186625 50.000162068 0 0 0
511 2 190.628536551 2.186625 57.533643692 0 0 0
512 2 194.415883551 0 57.533643692 0 0 0
513 2 191.893510449 0 53.76690288 0 0 0
514 2 195.680857449 2.186625 53.76690288 0 0 0
515 2 191.893510449 0 60.066756308 0 0 0
516 2 195.680857449 2.186625 60.066756308 0 0 0
517 2 189.36735 0 67.600237932 0 0 0
518 2 193.154697 2.186625 67.600237932 0 0 0
519 2 190.628536551 2.186625 63.83349712 0 0 0
520 2 194.415883551 0 63.83349712 0 0 0
521 1 198.203230551 2.186625 51.740647988 0 0 0
522 1 201.990577551 0 51.740647988 0 0 0
523 1 196.942044 0 55.791981768 0 0 0
524 1 200.729391 2.186625 55.791981768 0 0 0
525 1 196.942044 0 61.808418232 0 0 0
526 1 200.729391 2.186625 61.808418232 0 0 0
527 1 199.468204449 0 65.859752012 0 0 0
528 1 203.255551449 2.186625 65.859752012 0 0 0
529 2 196.942044 0 50.000162068 0 0 0
530 2 200.729391 2.186625 50.000162068 0 0 0
531 2 198.203230551 2.186625 57.533643692 0 0 0
532 2 201.990577551 0 57.533643692 0 0 0
533 2 199.468204449 0 53.76690288 0 0 0
534 2 203.255551449 2.186625 53.76690288 0 0 0
535 2 199.468204449 0 60.066756308 0 0 0
536 2 203.255551449 2.186625 60.066756308 0 0 0
537 2 196.942044 0 67.600237932 0 0 0
538 2 200.729391 2.186625 67.600237932 0 0 0
539 2 198.203230551 2.186625 63.83349712 0 0 0
540 2 201.990577551 0 63.83349712 0 0 0
541 1 205.777924551 2.186625 51.740647988 0 0 0
542 1 209.565271551 0 51.740647988 0 0 0
543 1 204.516738 0 55.791981768 0 0 0
544 1 208.304085 2.186625 55.791981768 0 0 0
545 1 204.516738 0 61.808418232 0 0 0
546 1 208.304085 2.186625 61.808418232 0 0 0
547 1 207.042898449 0 65.859752012 0 0 0
548 1 210.830245449 2.186625 65.859752012 0 0 0
549 2 204.516738 0 50.000162068 0 0 0
550 2 208.304085 2.186625 50.000162068 0 0 0
551 2 205.777924551 2.186625 57.533643692 0 0 0
552 2 209.565271551 0 57.533643692 0 0 0
553 2 207.042898449 0 53.76690288 0 0 0
554 2 210.830245449 2.186625 53.76690288 0 0 0
555 2 207.042898449 0 60.066756308 0 0 0
556 2 210.830245449 2.186625 60.066756308 0 0 0
557 2 204.516738 0 67.600237932 0 0 0
558 2 208.304085 2.186625 67.600237932 0 0 0
559 2 205.777924551 2.186625 63.83349712 0 0 0
560 2 209.565271551 0 63.83349712 0 0 0
561 1 213.352618551 2.186625 51.740647988 0 0 0
562 1 217.139965551 0 51.740647988 0 0 0
563 1 212.091432 0 55.791981768 0 0 0
564 1 215.878779 2.186625 55.791981768 0 0 0
565 1 212.091432 0 61.808418232 0 0 0
566 1 215.878779 2.186625 61.808418232 0 0 0
567 1 214.617592449 0 65.859752012 0 0 0
568 1 218.404939449 2.186625 65.859752012 0 0 0
569 2 212.091432 0 50.000162068 0 0 0
570 2 215.878779 2.186625 50.000162068 0 0 0
571 2 213.352618551 2.186625 57.533643692 0 0 0
572 2 217.139965551 0 57.533643692 0 0 0
573 2 214.617592449 0 53.76690288 0 0 0
574 2 218.404939449 2.186625 53.76690288 0 0 0
575 2 214.617592449 0 60.066756308 0 0 0
576 2 218.404939449 2.186625 60.066756308 0 0 0
577 2 212.091432 0 67.600237932 0 0 0
578 2 215.878779 2.186625 67.600237932 0 0 0
579 2 213.352618551 2.186625 63.83349712 0 0 0
580 2 217.139965551 0 63.83349712 0 0 0
581 1 220.927312551 2.186625 51.740647988 0 0 0
582 1 224.714659551 0 51.740647988 0 0 0
583 1 219.666126 0 55.791981768 0 0 0
584 1 223.453473 2.186625 55.791981768 0 0 0
585 1 219.666126 0 61.808418232 0 0 0
586 1 223.453473 2.186625 61.808418232 0 0 0
587 1 222.192286449 0 65.859752012 0 0 0
588 1 225.979633449 2.186625 65.859752012 0 0 0
589 2 219.666126 0 50.000162068 0 0 0
590 2 223.453473 2.186625 50.000162068 0 0 0
591 2 220.927312551 2.186625 57.533643692 0 0 0
592 2 224.714659551 0 57.533643692 0 0 0
593 2 222.192286449 0 53.76690288 0 0 0
594 2 225.979633449 2.186625 53.76690288 0 0 0
595 2 222.192286449 0 60.066756308 0 0 0
596 2 225.979633449 2.186625 60.066756308 0 0 0
597 2 219.666126 0 67.600237932 0 0 0
598 2 223.453473 2.186625 67.600237932 0 0 0
599 2 220.927312551 2.186625 63.83349712 0 0 0
600 2 224.714659551 0 63.83349712 0 0 0
601 1 228.502006551 2.186625 51.740647988 0 0 0
602 1 232.289353551 0 51.740647988 0 0 0
603 1 227.24082 0 55.791981768 0 0 0
604 1 231.028167 2.186625 55.791981768 0 0 0
605 1 227.24082 0 61.808418232 0 0 0
606 1 231.028167 2.186625 61.808418232 0 0 0
607 1 229.766980449 0 65.859752012 0 0 0
608 1 233.554327449 2.186625 65.859752012 0 0 0
609 2 227.24082 0 50.000162068 0 0 0
610 2 231.028167 2.186625 50.000162068 0 0 0
611 2 228.502006551 2.186625 57.533643692 0 0 0
612 2 232.289353551 0 57.533643692 0 0 0
613 2 229.766980449 0 53.76690288 0 0 0
614 2 233.554327449 2.186625 53.76690288 0 0 0
615 2 229.766980449 0 60.066756308 0 0 0
616 2 233.554327449 2.186625 60.066756308 0 0 0
617 2 227.24082 0 67.600237932 0 0 0
618 2 231.028167 2.186625 67.600237932 0 0 0
619 2 228.502006551 2.186625 63.83349712 0 0 0
620 2 232.289353551 0 63.83349712 0 0 0
621 1 236.076700551 2.186625 51.740647988 0 0 0
622 1 239.864047551 0 51.740647988 0 0 0
623 1 234.815514 0 55.791981768 0 0 0
624 1 238.602861 2.186625 55.791981768 0 0 0
625 1 234.815514 0 61.808418232 0 0 0
626 1 238.602861 2.186625 61.808418232 0 0 0
627 1 237.341674449 0 65.859752012 0 0 0
628 1 241.129021449 2.186625 65.859752012 0 0 0
629 2 234.815514 0 50.000162068 0 0 0
630 2 238.602861 2.186625 50.000162068 0 0 0
631 2 236.076700551 2.186625 57.533643692 0 0 0
632 2 239.864047551 0 57.533643692 0 0 0
633 2 237.341674449 0 53.76690288 0 0 0
634 2 241.129021449 2.186625 53.76690288 0 0 0
635 2 237.341674449 0 60.066756308 0 0 0
636 2 241.129021449 2.186625 60.066756308 0 0 0
637 2 234.815514 0 67.600237932 0 0 0
638 2 238.602861 2.186625 67.600237932 0 0 0
639 2 236.076700551 2.186625 63.83349712 0 0 0
640 2 239.864047551 0 63.83349712 0 0 0
641 1 243.651394551 2.186625 51.740647988 0 0 0
642 1 247.438741551 0 51.740647988 0 0 0
643 1 242.390208 0 55.791981768 0 0 0
644 1 246.177555 2.186625 55.791981768 0 0 0
645 1 242.390208 0 61.808418232 0 0 0
646 1 246.177555 2.186625 61.808418232 0 0 0
647 1 244.916368449 0 65.859752012 0 0 0
648 1 248.703715449 2.186625 65.859752012 0 0 0
649 2 242.390208 0 50.000162068 0 0 0
650 2 246.177555 2.186625 50.000162068 0 0 0
651 2 243.651394551 2.186625 57.533643692 0 0 0
652 2 247.438741551 0 57.533643692 0 0 0
653 2 244.916368449 0 53.76690288 0 0 0
654 2 248.703715449 2.186625 53.76690288 0 0 0
655 2 244.916368449 0 60.066756308 0 0 0
656 2 248.703715449 2.186625 60.066756308 0 0 0
657 2 242.390208 0 67.600237932 0 0 0
658 2 246.177555 2.186625 67.600237932 0 0 0
659 2 243.651394551 2.186625 63.83349712 0 0 0
660 2 247.438741551 0 63.83349712 0 0 0
661 1 251.226088551 2.186625 51.740647988 0 0 0
662 1 255.013435551 0 51.740647988 0 0 0
663 1 249.964902 0 55.791981768 0 0 0
664 1 253.752249 2.186625 55.791981768 0 0 0
665 1 249.964902 0 61.808418232 0 0 0
666 1 253.752249 2.186625 61.808418232 0 0 0
667 1 252.491062449 0 65.859752012 0 0 0
668 1 256.278409449 2.186625 65.859752012 0 0 0
669 2 249.964902 0 50.000162068 0 0 0
670 2 253.752249 2.186625 50.000162068 0 0 0
671 2 251.226088551 2.186625 57.533643692 0 0 0
672 2 255.013435551 0 57.533643692 0 0 0
673 2 252.491062449 0 53.76690288 0 0 0
674 2 256.278409449 2.186625 53.76690288 0 0 0
675 2 252.491062449 0 60.066756308 0 0 0
676 2 256.278409449 2.186625 60.066756308 0 0 0
677 2 249.964902 0 67.600237932 0 0 0
678 2 253.752249 2.186625 67.600237932 0 0 0
679 2 251.226088551 2.186625 63.83349712 0 0 0
680 2 255.013435551 0 63.83349712 0 0 0
681 1 258.800782551 2.186625 51.740647988 0 0 0
682 1 262.588129551 0 51.740647988 0 0 0
683 1 257.539596 0 55.791981768 0 0 0
684 1 261.326943 2.186625 55.791981768 0 0 0
685 1 257.539596 0 61.808418232 0 0 0
686 1 261.326943 2.186625 61.808418232 0 0 0
687 1 260.065756449 0 65.859752012 0 0 0
688 1 263.853103449 2.186625 65.859752012 0 0 0
689 2 257.539596 0 50.000162068 0 0 0
690 2 261.326943 2.186625 50.000162068 0 0 0
691 2 258.800782551 2.186625 57.533643692 0 0 0
692 2 262.588129551 0 57.533643692 0 0 0
693 2 260.065756449 0 53.76690288 0 0 0
694 2 263.853103449 2.186625 53.76690288 0 0 0
695 2 260.065756449 0 60.066756308 0 0 0
696 2 263.853103449 2.186625 60.066756308 0 0 0
697 2 257.539596 0 67.600237932 0 0 0
698 2 261.326943 2.186625 67.600237932 0 0 0
699 2 258.800782551 2.186625 63.83349712 0 0 0
700 2 262.588129551 0 63.83349712 0 0 0
701 1 266.375476551 2.186625 51.740647988 0 0 0