LAMMPS data file via write_data, version 2 Aug 2023, timestep = 1000, units = metal

4000 atoms
2 atom types

0 378.7347 xlo xhi
0 17.493 ylo yhi
0 117.6004 zlo zhi

Masses

1 208.98038
2 127.6

Atoms # atomic

9 2 0.6597535615315009 4.973799150320701e-13 50.000162068 0 0 0
10 2 4.470004045960328 2.186624999999824 50.000162068 0 0 0
1009 2 0.6597535615314991 4.37325000000002 50.000162068 0 0 0
29 2 8.097473888307372 17.49299999999998 50.000162068 0 -1 0
1029 2 8.09747388830735 4.373249999999987 50.000162068 0 0 0
30 2 11.343829483083809 2.1866250000000123 50.000162068 0 0 0
49 2 14.827154702562 17.492999999999206 49.87786995521152 0 -1 0
1049 2 14.827154702563929 4.373249999998982 49.877869955211025 0 0 0
50 2 19.35450567611238 2.1866250000009138 49.30914513372012 0 0 0
69 2 23.8896243827712 17.492999999999935 49.08294643068911 0 -1 0
70 2 27.573214596718405 2.186624999999931 48.706360673605225 0 0 0
1069 2 23.889624382770705 4.373249999999783 49.082946430688374 0 0 0
89 2 31.30048273428016 17.492999999999746 49.15327171352354 0 -1 0
1089 2 31.300482734280177 4.373249999999785 49.15327171352391 0 0 0
90 2 34.86843133444959 2.1866249999999057 49.68077871116331 0 0 0
109 2 38.17676824460308 1.1815380485105468e-13 49.95580617068065 0 0 0
1109 2 38.176768244603 4.37324999999999 49.95580617068028 0 0 0
110 2 41.69936621153445 2.1866250000001903 50.10041389916966 0 0 0
129 2 45.27960794923834 17.49299999999997 50.15538881247549 0 -1 0
130 2 48.76658700624054 2.186625000000065 50.24918471612447 0 0 0
1129 2 45.279607949238304 4.373249999999937 50.15538881247534 0 0 0
149 2 52.586917596458996 17.49299999999997 50.24152097331779 0 -1 0
1149 2 52.58691759645887 4.373249999999977 50.241520973317776 0 0 0
150 2 56.531108977809666 2.1866250000002654 50.199237556307224 0 0 0
169 2 60.43567778358119 17.492999999999906 50.16626835494688 0 -1 0
1169 2 60.43567778358102 4.373249999999929 50.16626835494703 0 0 0
170 2 64.29163296651178 2.186625000000068 50.14312561221225 0 0 0
189 2 68.11743070660638 17.492999999999856 50.128023440197055 0 -1 0
190 2 71.92376159206114 2.186625000000164 50.12022419954533 0 0 0
1189 2 68.11743070660634 4.373250000000012 50.12802344019712 0 0 0
209 2 75.71870211618761 1.0213591905692924e-13 50.11713958350091 0 0 0
1209 2 75.71870211618756 4.373250000000065 50.11713958350088 0 0 0
210 2 79.50849280485659 2.186625000000178 50.11617556682575 0 0 0
229 2 83.29649983042889 17.492999999999842 50.11591968450499 0 -1 0
1229 2 83.29649983042886 4.373249999999685 50.115919684505116 0 0 0
230 2 87.08400308677469 2.186625000000121 50.11585883916847 0 0 0
249 2 90.87138356699334 5.3290705182007514e-14 50.11584556064198 0 0 0
1249 2 90.8713835669936 4.3732499999999765 50.115845560641766 0 0 0
250 2 94.65873720868905 2.1866250000001677 50.115842881651055 0 0 0
269 2 98.44608544146337 17.492999999999952 50.11584238443484 0 -1 0
1269 2 98.44608544146298 4.373250000000111 50.11584238443497 0 0 0
270 2 102.23343265583128 2.1866250000001983 50.11584229950319 0 0 0
289 2 106.02077969071681 17.49299999999986 50.11584228617357 0 -1 0
290 2 109.80812669610472 2.186625000000143 50.115842284179884 0 0 0
1289 2 106.02077969071671 4.373249999999997 50.115842286173795 0 0 0
309 2 113.59547369691002 17.492999999999977 50.115842283886735 0 -1 0
1309 2 113.59547369690989 4.373249999999913 50.11584228388666 0 0 0
310 2 117.38282069703054 2.1866249999998564 50.11584228384359 0 0 0
329 2 121.1701676970487 17.49299999999993 50.11584228383847 0 -1 0
1329 2 121.17016769704878 4.373249999999948 50.11584228383857 0 0 0
330 2 124.95751469705029 2.186625000000149 50.11584228383513 0 0 0
349 2 128.7448616970516 17.49299999999973 50.11584228383584 0 -1 0
350 2 132.53220869705078 2.1866250000002903 50.115842283838056 0 0 0
1349 2 128.7448616970517 4.373249999999799 50.115842283835825 0 0 0
369 2 136.3195556970508 17.492999999999597 50.11584228383915 0 -1 0
1369 2 136.3195556970511 4.373250000000003 50.115842283838745 0 0 0
370 2 140.1069026970523 2.186625000000259 50.115842283841666 0 0 0
389 2 143.89424969704805 17.492999999999885 50.11584228384123 0 -1 0
1389 2 143.894249697048 4.373250000000248 50.115842283841545 0 0 0
390 2 147.68159669704963 2.1866249999999154 50.11584228384215 0 0 0
409 2 151.46894369704953 17.49299999999979 50.11584228384336 0 -1 0
410 2 155.25629069704806 2.186625000000018 50.11584228384262 0 0 0
1409 2 151.46894369704998 4.373250000000101 50.11584228384321 0 0 0
429 2 159.04363769705023 17.49299999999983 50.11584228384388 0 -1 0
1429 2 159.04363769705017 4.3732500000001435 50.11584228384346 0 0 0
430 2 162.83098469704723 2.186625000000156 50.11584228384141 0 0 0
449 2 166.6183316970489 17.492999999999977 50.11584228384325 0 -1 0
1449 2 166.6183316970493 4.373249999999765 50.11584228384267 0 0 0
450 2 170.4056786970495 2.18662500000027 50.11584228384369 0 0 0
469 2 174.19302569704672 6.804548515744116e-14 50.115842283841864 0 0 0
470 2 177.98037269704906 2.186625000000142 50.11584228384289 0 0 0
1469 2 174.1930256970472 4.373249999999724 50.115842283841744 0 0 0
489 2 181.76771969704942 17.492999999999853 50.11584228384197 0 -1 0
1489 2 181.7677196970491 4.373249999999859 50.11584228384191 0 0 0
490 2 185.55506669704803 2.186625000000181 50.11584228384323 0 0 0
509 2 189.34241369704972 17.49299999999996 50.11584228384363 0 -1 0
510 2 193.12976069704777 2.186625000000024 50.11584228384281 0 0 0
1509 2 189.3424136970497 4.373249999999935 50.11584228384377 0 0 0
529 2 196.91710769704835 17.492999999999892 50.115842283842966 0 -1 0
1529 2 196.91710769704815 4.373249999999883 50.115842283842966 0 0 0
530 2 200.7044546970495 2.1866250000002077 50.11584228384158 0 0 0
549 2 204.4918016970482 17.492999999999892 50.115842283843634 0 -1 0
1549 2 204.491801697048 4.373250000000089 50.115842283843705 0 0 0
550 2 208.27914869704946 2.1866250000002925 50.115842283843975 0 0 0
569 2 212.0664956970474 1.65919950447033e-13 50.11584228384243 0 0 0
570 2 215.8538426970491 2.1866250000000726 50.11584228384332 0 0 0
1569 2 212.06649569704743 4.373249999999775 50.115842283842085 0 0 0
589 2 219.64118969704964 17.492999999999807 50.115842283842575 0 -1 0
1589 2 219.64118969704955 4.373249999999765 50.115842283842476 0 0 0
590 2 223.42853669704814 2.1866250000000624 50.115842283841765 0 0 0
609 2 227.2158836970507 17.492999999999945 50.11584228384261 0 -1 0
1609 2 227.21588369705017 4.373250000000066 50.11584228384258 0 0 0
610 2 231.00323069704646 2.1866249999999536 50.1158422838402 0 0 0
629 2 234.7905776970476 17.49299999999979 50.11584228384134 0 -1 0
630 2 238.57792469704646 2.186625000000183 50.115842283841445 0 0 0
1629 2 234.79057769704792 4.373249999999805 50.11584228384122 0 0 0
649 2 242.36527169704485 17.49299999999953 50.115842283839484 0 -1 0
1649 2 242.3652716970443 4.373250000000091 50.11584228383921 0 0 0
650 2 246.15261869705154 2.186625000000098 50.115842283843385 0 0 0
669 2 249.93996569704808 17.492999999999988 50.11584228384514 0 -1 0
1669 2 249.9399656970481 4.373249999999968 50.11584228384502 0 0 0
670 2 253.72731269704713 2.186624999999641 50.1158422838421 0 0 0
689 2 257.5146596970508 1.7053025658242404e-13 50.11584228383512 0 0 0
690 2 261.30200669705374 2.1866249999999923 50.11584228383828 0 0 0
1689 2 257.5146596970512 4.373249999999849 50.11584228383512 0 0 0
709 2 265.0893536970568 17.492999999999693 50.11584228383499 0 -1 0
1709 2 265.08935369705705 4.373249999999638 50.11584228383492 0 0 0
710 2 268.8767006970487 2.1866250000005936 50.115842283827966 0 0 0
729 2 272.6640476969009 17.492999999999746 50.115842283812576 0 -1 0
1729 2 272.6640476968998 4.37324999999945 50.11584228381275 0 0 0
730 2 276.451394696639 2.186624999999664 50.11584228418884 0 0 0
749 2 280.2387417005128 17.492999999999974 50.11584228926601 0 -1 0
1749 2 280.2387417005129 4.37324999999999 50.11584228926611 0 0 0
750 2 284.0260887455297 2.1866250000004746 50.11584232880896 0 0 0
769 2 287.81343605022045 7.105427357601002e-15 50.1158425696087 0 0 0
1769 2 287.81343605022073 4.373249999999988 50.11584256960853 0 0 0
770 2 291.60078470360514 2.186625000000223 50.115843873593086 0 0 0
789 2 295.38813969594287 6.750155989720952e-14 50.11585023876191 0 0 0
790 2 299.17552381382177 2.1866249999997787 50.1158802900967 0 0 0
1789 2 295.38813969594275 4.373250000000108 50.115850238762114 0 0 0
809 2 302.9630337753924 17.492999999999867 50.11601121181653 0 -1 0
1809 2 302.96303377539357 4.373249999999847 50.11601121181626 0 0 0
810 2 306.7510407963696 2.1866249999997636 50.11653602245174 0 0 0
829 2 310.5407588134694 17.49299999999989 50.1184213427093 0 -1 0
1829 2 310.5407588134689 4.373249999999799 50.11842134270931 0 0 0
830 2 314.3353237661576 2.1866249999999035 50.12421566256277 0 0 0
849 2 318.1404737008629 2.8066438062523957e-13 50.13842327967583 0 0 0
850 2 321.9632186259481 2.186625000000631 50.16477794692731 0 0 0
1849 2 318.14047370086286 4.3732500000000085 50.138423279675855 0 0 0
869 2 325.80966804616446 17.492999999999963 50.20233222002542 0 -1 0
1869 2 325.80966804616463 4.373249999999663 50.20233222002545 0 0 0
870 2 329.6757035383281 2.186624999999846 50.24741663568534 0 0 0
889 2 333.4989053777597 4.298783551348606e-13 50.267238630941385 0 0 0
1889 2 333.49890537776037 4.373250000000231 50.26723863094081 0 0 0
890 2 337.189469779464 2.186624999999923 50.12677385457018 0 0 0
909 2 340.89933133739305 17.49299999999982 49.77705211580399 0 -1 0
910 2 344.61144413185906 2.186625000000202 49.283591271306285 0 0 0
1909 2 340.8993313373928 4.373249999999908 49.77705211580375 0 0 0
929 2 348.29980263184984 17.492999999999963 49.12992726167708 0 -1 0
1929 2 348.29980263185047 4.373249999999804 49.12992726167614 0 0 0
930 2 352.3055182603249 2.1866249999992284 49.08865649955411 0 0 0
949 2 356.84500160466087 17.49299999999885 48.967202211533674 0 -1 0
1949 2 356.84500160465643 4.373249999999213 48.96720221153162 0 0 0
950 2 360.2347345678241 2.186624999999803 49.03628706998754 0 0 0
969 2 364.90333204334854 1.2434497875801753e-12 48.84531140263449 0 0 0
970 2 368.1746379238219 2.1866249999980596 50.000162068 0 0 0
1969 2 364.9033320433683 4.373249999999697 48.84531140263425 0 0 0
989 2 371.64334349262884 2.8066438062523957e-13 50.000162068 0 0 0
1989 2 371.64334349263027 4.373249999999665 50.000162068 0 0 0
990 2 375.31901410188595 2.186624999999211 50.000162068 0 0 0
1010 2 4.470004045960157 6.559874999999938 50.000162068 0 0 0
2009 2 0.659753561531686 8.746500000000129 50.000162068 0 0 0
2010 2 4.470004045960817 10.933125000000317 50.000162068 0 0 0
2029 2 8.097473888307254 8.74649999999985 50.000162068 0 0 0
1030 2 11.343829483083635 6.55987500000027 50.000162068 0 0 0
2030 2 11.34382948308354 10.933125000000022 50.000162068 0 0 0
2049 2 14.827154702565286 8.746500000000443 49.87786995520991 0 0 0
1050 2 19.35450567611327 6.559875000000148 49.30914513371977 0 0 0
2050 2 19.3545056761128 10.933125000000361 49.309145133720016 0 0 0
1070 2 27.573214596718554 6.559875000000111 48.70636067360517 0 0 0
2069 2 23.889624382770325 8.746500000000006 49.082946430688274 0 0 0
2070 2 27.57321459671732 10.933125000000532 48.70636067360616 0 0 0
2089 2 31.300482734280163 8.746499999999935 49.15327171352314 0 0 0
1090 2 34.86843133444893 6.559874999999963 49.68077871116316 0 0 0
2090 2 34.86843133444928 10.933124999999897 49.68077871116309 0 0 0
2109 2 38.176768244602904 8.746499999999775 49.95580617068022 0 0 0
1110 2 41.69936621153473 6.559875000000106 50.1004138991694 0 0 0
2110 2 41.69936621153466 10.933124999999952 50.10041389916939 0 0 0
1130 2 48.76658700624053 6.559875000000057 50.249184716124134 0 0 0
2129 2 45.279607949238155 8.746499999999953 50.15538881247521 0 0 0
2130 2 48.76658700624025 10.93312500000003 50.24918471612413 0 0 0
2149 2 52.58691759645907 8.74650000000008 50.24152097331793 0 0 0
1150 2 56.53110897780948 6.559875000000048 50.19923755630743 0 0 0
2150 2 56.53110897780984 10.933125000000144 50.19923755630745 0 0 0
2169 2 60.43567778358089 8.746499999999894 50.16626835494707 0 0 0
1170 2 64.2916329665118 6.559874999999777 50.143125612212145 0 0 0
2170 2 64.29163296651183 10.93312500000015 50.14312561221253 0 0 0
1190 2 71.92376159206128 6.559875000000032 50.12022419954535 0 0 0
2189 2 68.11743070660643 8.746499999999958 50.128023440196785 0 0 0
2190 2 71.92376159206141 10.933125000000008 50.12022419954514 0 0 0
2209 2 75.71870211618757 8.746499999999847 50.117139583500716 0 0 0
1210 2 79.50849280485643 6.5598750000000425 50.1161755668257 0 0 0
2210 2 79.50849280485647 10.933124999999967 50.11617556682569 0 0 0
2229 2 83.2964998304288 8.74649999999999 50.11591968450509 0 0 0
1230 2 87.08400308677433 6.559874999999919 50.115858839168475 0 0 0
2230 2 87.08400308677419 10.933125000000205 50.11585883916864 0 0 0
2249 2 90.87138356699357 8.74649999999992 50.11584556064199 0 0 0
1250 2 94.65873720868944 6.5598750000000345 50.11584288165088 0 0 0
2250 2 94.65873720868899 10.933124999999912 50.11584288165101 0 0 0
2269 2 98.44608544146298 8.74650000000001 50.11584238443483 0 0 0
1270 2 102.23343265583118 6.559875000000022 50.1158422995032 0 0 0
2270 2 102.23343265583114 10.933125000000087 50.11584229950333 0 0 0
1290 2 109.80812669610485 6.559874999999962 50.11584228417997 0 0 0
2289 2 106.02077969071647 8.7465000000001 50.11584228617351 0 0 0
2290 2 109.80812669610495 10.933125000000052 50.11584228417996 0 0 0
2309 2 113.59547369691003 8.746500000000095 50.115842283886366 0 0 0
1310 2 117.38282069703024 6.5598749999997565 50.11584228384319 0 0 0
2310 2 117.38282069703034 10.933125000000114 50.11584228384349 0 0 0
2329 2 121.17016769704885 8.746499999999921 50.11584228383848 0 0 0
1330 2 124.95751469705047 6.559875000000107 50.11584228383501 0 0 0
2330 2 124.95751469705034 10.93312499999991 50.11584228383519 0 0 0
1350 2 132.53220869705103 6.559874999999818 50.11584228383781 0 0 0
2349 2 128.74486169705168 8.746500000000236 50.115842283836066 0 0 0
2350 2 132.53220869705112 10.93312500000015 50.115842283838404 0 0 0
2369 2 136.31955569705073 8.746499999999743 50.115842283838916 0 0 0
1370 2 140.10690269705256 6.559874999999987 50.11584228384184 0 0 0
2370 2 140.1069026970524 10.933125000000059 50.11584228384184 0 0 0
2389 2 143.8942496970481 8.746499999999795 50.11584228384125 0 0 0
1390 2 147.68159669705014 6.559875000000065 50.11584228384268 0 0 0
2390 2 147.68159669704983 10.93312500000026 50.11584228384214 0 0 0
1410 2 155.2562906970481 6.559874999999984 50.115842283842426 0 0 0
2409 2 151.46894369704992 8.746499999999905 50.115842283842724 0 0 0
2410 2 155.25629069704777 10.933125000000276 50.115842283842575 0 0 0
2429 2 159.04363769705049 8.746499999999884 50.11584228384355 0 0 0
1430 2 162.8309846970468 6.5598749999998525 50.11584228384149 0 0 0
2430 2 162.830984697047 10.933125000000176 50.11584228384167 0 0 0
2449 2 166.61833169704946 8.746499999999768 50.11584228384252 0 0 0
1450 2 170.4056786970505 6.55987500000009 50.1158422838433 0 0 0
2450 2 170.4056786970501 10.93312500000008 50.115842283843214 0 0 0
1470 2 177.9803726970492 6.559875000000244 50.11584228384213 0 0 0
2469 2 174.19302569704703 8.746500000000045 50.11584228384133 0 0 0
2470 2 177.98037269704915 10.933124999999979 50.11584228384289 0 0 0
2489 2 181.76771969704933 8.746500000000015 50.11584228384178 0 0 0
1490 2 185.5550666970482 6.559874999999822 50.115842283843044 0 0 0
2490 2 185.55506669704826 10.93312499999995 50.11584228384349 0 0 0
1510 2 193.129760697048 6.559875000000057 50.1158422838425 0 0 0
2509 2 189.34241369704966 8.746500000000083 50.11584228384368 0 0 0
2510 2 193.12976069704803 10.933125000000182 50.11584228384249 0 0 0
2529 2 196.91710769704883 8.746499999999958 50.115842283842674 0 0 0
1530 2 200.70445469704921 6.55987500000002 50.11584228384131 0 0 0
2530 2 200.70445469704933 10.933125000000086 50.1158422838412 0 0 0
2549 2 204.4918016970482 8.746499999999898 50.11584228384344 0 0 0
1550 2 208.2791486970499 6.559875000000001 50.11584228384366 0 0 0
2550 2 208.2791486970496 10.933125000000066 50.115842283843456 0 0 0
1570 2 215.85384269704934 6.559875000000159 50.115842283843236 0 0 0
2569 2 212.06649569704788 8.746499999999987 50.11584228384213 0 0 0
2570 2 215.85384269704946 10.93312500000027 50.115842283842774 0 0 0
2589 2 219.64118969704955 8.746500000000038 50.11584228384216 0 0 0
1590 2 223.4285366970482 6.559874999999926 50.115842283841715 0 0 0
2590 2 223.42853669704832 10.933125000000137 50.115842283842134 0 0 0
2609 2 227.21588369705051 8.746500000000053 50.11584228384265 0 0 0
1610 2 231.00323069704638 6.55987500000003 50.115842283840344 0 0 0
2610 2 231.00323069704675 10.933125000000283 50.11584228384057 0 0 0
1630 2 238.57792469704663 6.559875000000103 50.11584228384156 0 0 0
2629 2 234.79057769704804 8.746499999999953 50.11584228384118 0 0 0
2630 2 238.57792469704657 10.93312499999996 50.115842283841445 0 0 0
2649 2 242.3652716970441 8.746500000000182 50.11584228383925 0 0 0
1650 2 246.15261869705154 6.559875000000017 50.115842283843406 0 0 0
2650 2 246.15261869705154 10.933124999999933 50.11584228384327 0 0 0
2669 2 249.93996569704777 8.746499999999958 50.11584228384523 0 0 0
1670 2 253.72731269704693 6.559875000000039 50.11584228384217 0 0 0
2670 2 253.7273126970477 10.933125000000159 50.11584228384226 0 0 0
1690 2 261.3020066970531 6.5598750000000114 50.115842283838724 0 0 0
2689 2 257.51465969705174 8.746499999999926 50.11584228383507 0 0 0
2690 2 261.30200669705357 10.933124999999848 50.11584228383856 0 0 0
2709 2 265.089353697056 8.746499999999791 50.115842283834965 0 0 0
1710 2 268.876700697049 6.55987500000012 50.11584228382825 0 0 0
2710 2 268.8767006970496 10.93312500000003 50.11584228382845 0 0 0
2729 2 272.66404769689944 8.746500000000012 50.115842283813045 0 0 0
1730 2 276.4513946966389 6.559874999999843 50.11584228418904 0 0 0
2730 2 276.4513946966389 10.933125000000397 50.11584228418871 0 0 0
2749 2 280.23874170051306 8.746499999999964 50.11584228926544 0 0 0
1750 2 284.02608874552953 6.559875000000272 50.11584232880891 0 0 0
2750 2 284.02608874552965 10.93312500000039 50.115842328809016 0 0 0
2769 2 287.81343605022073 8.746499999999873 50.115842569608375 0 0 0
1770 2 291.60078470360503 6.559875000000014 50.11584387359348 0 0 0
2770 2 291.60078470360537 10.933125000000267 50.11584387359318 0 0 0
1790 2 299.17552381382217 6.559875000000167 50.11588029009713 0 0 0
2789 2 295.3881396959434 8.74649999999977 50.11585023876211 0 0 0
2790 2 299.17552381382177 10.933125000000498 50.11588029009711 0 0 0
2809 2 302.9630337753932 8.746500000000077 50.116011211816364 0 0 0
1810 2 306.75104079636895 6.5598749999999875 50.1165360224518 0 0 0
2810 2 306.7510407963688 10.93312500000009 50.11653602245174 0 0 0
2829 2 310.5407588134696 8.746500000000418 50.11842134270939 0 0 0
1830 2 314.33532376615767 6.559875000000167 50.1242156625622 0 0 0
2830 2 314.3353237661584 10.933124999999798 50.12421566256217 0 0 0
1850 2 321.9632186259484 6.559874999999745 50.164777946927366 0 0 0
2849 2 318.140473700863 8.746500000000019 50.138423279675536 0 0 0
2850 2 321.96321862594795 10.933125000000157 50.16477794692725 0 0 0
2869 2 325.8096680461644 8.746499999999921 50.202332220025326 0 0 0
1870 2 329.67570353832906 6.559874999999942 50.24741663568523 0 0 0
2870 2 329.67570353832843 10.933125000000318 50.24741663568561 0 0 0
2889 2 333.4989053777609 8.746499999999822 50.26723863094069 0 0 0
1890 2 337.18946977946416 6.5598749999996295 50.12677385456998 0 0 0
2890 2 337.18946977946365 10.933125000000294 50.12677385457009 0 0 0
1910 2 344.6114441318597 6.559874999999638 49.28359127130725 0 0 0
2909 2 340.8993313373924 8.746499999999811 49.777052115803826 0 0 0
2910 2 344.61144413185923 10.933124999999396 49.283591271307316 0 0 0
2929 2 348.2998026318499 8.746500000000767 49.12992726167564 0 0 0
1930 2 352.30551826033116 6.559874999999868 49.08865649955367 0 0 0
2930 2 352.305518260327 10.933125000000526 49.08865649955379 0 0 0
2949 2 356.84500160466166 8.746500000002756 48.967202211533355 0 0 0
1950 2 360.23473456782256 6.559874999998965 49.036287069988994 0 0 0
2950 2 360.2347345678255 10.933125000000274 49.036287069988916 0 0 0
1970 2 368.174637923822 6.559875000000526 50.000162068 0 0 0
2969 2 364.9033320433626 8.746499999997733 48.84531140263244 0 0 0
2970 2 368.17463792382364 10.933125000001644 50.000162068 0 0 0
2989 2 371.64334349263004 8.746500000000138 50.000162068 0 0 0
1990 2 375.319014101886 6.559875000000601 50.000162068 0 0 0
2990 2 375.31901410188584 10.933125000000704 50.000162068 0 0 0
3009 2 0.659753561531622 13.119749999999506 50.000162068 0 0 0
3010 2 4.47000404596041 15.306374999999953 50.000162068 0 0 0
3029 2 8.097473888307432 13.11975000000026 50.000162068 0 0 0
3030 2 11.343829483083567 15.306374999999907 50.000162068 0 0 0
3049 2 14.827154702561128 13.119750000000993 49.87786995521177 0 0 0
3050 2 19.354505676112055 15.306374999999807 49.30914513372038 0 0 0
3069 2 23.889624382770204 13.119750000000169 49.08294643068867 0 0 0
3070 2 27.57321459671799 15.306375000000134 48.70636067360597 0 0 0
3089 2 31.300482734278848 13.119749999999993 49.15327171352383 0 0 0
3090 2 34.86843133445019 15.306374999999923 49.68077871116253 0 0 0
3109 2 38.17676824460312 13.119749999999762 49.955806170680155 0 0 0
3110 2 41.69936621153435 15.306375000000093 50.100413899169645 0 0 0
3129 2 45.279607949237956 13.119749999999804 50.155388812475444 0 0 0
3130 2 48.766587006240435 15.30637499999977 50.24918471612425 0 0 0
3149 2 52.58691759645912 13.119750000000145 50.24152097331778 0 0 0
3150 2 56.53110897780975 15.306375000000005 50.199237556307516 0 0 0
3169 2 60.435677783581255 13.119749999999845 50.16626835494691 0 0 0
3170 2 64.29163296651184 15.306374999999969 50.143125612212366 0 0 0
3189 2 68.11743070660644 13.119750000000014 50.128023440196976 0 0 0
3190 2 71.92376159206141 15.306375000000024 50.1202241995453 0 0 0
3209 2 75.71870211618783 13.119750000000094 50.11713958350059 0 0 0
3210 2 79.50849280485666 15.306375000000003 50.116175566825746 0 0 0
3229 2 83.2964998304288 13.119749999999895 50.115919684504895 0 0 0
3230 2 87.08400308677425 15.306374999999742 50.11585883916875 0 0 0
3249 2 90.87138356699326 13.119749999999982 50.115845560641915 0 0 0
3250 2 94.65873720868903 15.30637500000024 50.11584288165083 0 0 0
3269 2 98.44608544146297 13.119749999999943 50.11584238443479 0 0 0
3270 2 102.2334326558314 15.306374999999845 50.11584229950311 0 0 0
3289 2 106.02077969071647 13.119750000000128 50.1158422861733 0 0 0
3290 2 109.80812669610481 15.306375000000054 50.115842284179976 0 0 0
3309 2 113.59547369690993 13.119749999999966 50.115842283886295 0 0 0
3310 2 117.38282069703075 15.306375000000049 50.11584228384376 0 0 0
3329 2 121.17016769704883 13.11975000000012 50.115842283838255 0 0 0
3330 2 124.9575146970504 15.306375000000138 50.11584228383511 0 0 0
3349 2 128.74486169705153 13.11975000000013 50.11584228383605 0 0 0
3350 2 132.53220869705083 15.306374999999944 50.11584228383813 0 0 0
3369 2 136.31955569705104 13.119749999999879 50.115842283838774 0 0 0
3370 2 140.10690269705287 15.306374999999987 50.11584228384192 0 0 0
3389 2 143.89424969704805 13.119750000000082 50.115842283841296 0 0 0
3390 2 147.68159669704966 15.306375000000093 50.11584228384218 0 0 0
3409 2 151.46894369704958 13.119750000000153 50.11584228384273 0 0 0
3410 2 155.256290697048 15.306374999999983 50.11584228384271 0 0 0
3429 2 159.04363769705026 13.119749999999934 50.115842283843214 0 0 0
3430 2 162.83098469704697 15.306375000000209 50.1158422838415 0 0 0
3449 2 166.6183316970492 13.11975000000013 50.11584228384272 0 0 0
3450 2 170.40567869704986 15.306374999999923 50.11584228384305 0 0 0
3469 2 174.1930256970465 13.119749999999874 50.11584228384147 0 0 0
3470 2 177.9803726970489 15.306375000000033 50.115842283842845 0 0 0
3489 2 181.7677196970493 13.119750000000021 50.115842283842156 0 0 0
3490 2 185.555066697048 15.306375000000092 50.11584228384344 0 0 0
3509 2 189.34241369704932 13.119749999999843 50.11584228384411 0 0 0
3510 2 193.12976069704825 15.306374999999909 50.11584228384227 0 0 0
3529 2 196.91710769704844 13.119749999999922 50.11584228384282 0 0 0
3530 2 200.70445469704967 15.306374999999878 50.115842283841424 0 0 0
3549 2 204.49180169704866 13.11975000000002 50.11584228384338 0 0 0
3550 2 208.27914869704995 15.306375000000019 50.11584228384382 0 0 0
3569 2 212.06649569704763 13.11975000000021 50.11584228384207 0 0 0
3570 2 215.85384269704923 15.306374999999994 50.11584228384324 0 0 0
3589 2 219.64118969704955 13.11975000000012 50.11584228384245 0 0 0
3590 2 223.4285366970483 15.306374999999962 50.11584228384209 0 0 0
3609 2 227.2158836970509 13.119750000000039 50.11584228384278 0 0 0
3610 2 231.00323069704663 15.306375000000171 50.11584228384061 0 0 0
3629 2 234.79057769704795 13.119750000000149 50.11584228384102 0 0 0
3630 2 238.57792469704637 15.306374999999848 50.115842283841694 0 0 0
3649 2 242.36527169704485 13.119750000000131 50.11584228383916 0 0 0
3650 2 246.15261869705202 15.306374999999802 50.11584228384352 0 0 0
3669 2 249.93996569704777 13.119750000000392 50.11584228384535 0 0 0
3670 2 253.7273126970475 15.306375000000278 50.115842283842234 0 0 0
3689 2 257.5146596970509 13.119749999999717 50.11584228383547 0 0 0
3690 2 261.30200669705386 15.306375000000076 50.11584228383819 0 0 0
3709 2 265.08935369705694 13.119750000000614 50.11584228383502 0 0 0
3710 2 268.8767006970487 15.306374999999587 50.11584228382795 0 0 0
3729 2 272.66404769689984 13.119750000000442 50.11584228381251 0 0 0
3730 2 276.45139469663883 15.306375000000157 50.115842284188915 0 0 0
3749 2 280.2387417005131 13.1197500000002 50.11584228926572 0 0 0
3750 2 284.0260887455306 15.306374999999399 50.11584232880891 0 0 0
3769 2 287.81343605022045 13.119749999999936 50.11584256960849 0 0 0
3770 2 291.60078470360526 15.306374999999793 50.11584387359284 0 0 0
3789 2 295.38813969594344 13.119750000000082 50.115850238762086 0 0 0
3790 2 299.17552381382166 15.306374999999894 50.115880290096726 0 0 0
3809 2 302.9630337753932 13.119749999999929 50.116011211816 0 0 0
3810 2 306.75104079636867 15.306375000000283 50.11653602245174 0 0 0
3829 2 310.5407588134699 13.119749999999936 50.11842134270944 0 0 0
3830 2 314.33532376615824 15.306375000000013 50.124215662562385 0 0 0
3849 2 318.14047370086314 13.11974999999963 50.13842327967587 0 0 0
3850 2 321.9632186259475 15.306375000000049 50.164777946926854 0 0 0
3869 2 325.8096680461639 13.119750000000685 50.202332220025646 0 0 0
3870 2 329.67570353832826 15.30637499999974 50.24741663568585 0 0 0
3889 2 333.4989053777601 13.119749999999591 50.267238630940525 0 0 0
3890 2 337.18946977946416 15.306375000000212 50.126773854570594 0 0 0
3909 2 340.89933133739294 13.119750000000243 49.77705211580434 0 0 0
3910 2 344.6114441318591 15.306375000000347 49.28359127130643 0 0 0
3929 2 348.2998026318503 13.119750000000497 49.12992726167654 0 0 0
3930 2 352.3055182603243 15.306375000000164 49.08865649955412 0 0 0
3949 2 356.84500160465967 13.119749999998847 48.96720221153301 0 0 0
3950 2 360.2347345678261 15.306375000000473 49.0362870699869 0 0 0
3969 2 364.90333204334695 13.11974999999926 48.845311402632326 0 0 0
3970 2 368.17463792382136 15.306374999999623 50.000162068 0 0 0
3989 2 371.6433434926291 13.119749999999758 50.000162068 0 0 0
3990 2 375.3190141018852 15.306374999999614 50.000162068 0 0 0
1 1 1.7605115804136096 2.186624999999605 51.740647988 0 0 0
2 1 5.329957169009665 17.492999999999938 51.740647988 0 -1 0
3 1 0.4691479506284197 7.105427357601002e-14 55.791981768 0 0 0
4 1 4.066146514099316 2.186625000000192 55.791981768 0 0 0
13 2 2.9646856615922865 1.1723955140041653e-13 53.76690288 0 0 0
1002 1 5.329957169009065 4.373250000000009 51.740647988 0 0 0
1003 1 0.4691479506282062 4.373249999999655 55.791981768 0 0 0
1013 2 2.964685661592039 4.373249999999912 53.76690288 0 0 0
14 2 6.754238671730276 2.1866249999997818 53.76690288 0 0 0
21 1 9.108440338716045 2.1866249999999696 51.740647988 0 0 0
23 1 8.117459001047783 1.1013412404281553e-13 55.791981768 0 0 0
33 2 10.382560504978615 2.2737367544323206e-13 53.76690288 0 0 0
1023 1 8.117459001047457 4.3732499999999055 55.791981768 0 0 0
1033 2 10.382560504978837 4.373250000000325 53.76690288 0 0 0
22 1 12.928507676056654 17.492999999999608 51.740647988 0 -1 0
24 1 11.974817836320947 2.1866250000003133 55.791981768 0 0 0
34 2 14.450327817875328 2.1866250000006215 53.728133909027555 0 0 0
41 1 16.721632266076785 2.1866250000000216 51.77472977539174 0 0 0
43 1 15.748858666992225 17.492999999999963 55.79055324239548 0 -1 0
1022 1 12.928507676056784 4.373249999999933 51.740647988 0 0 0
1043 1 15.748858666991891 4.373250000000392 55.790553242395085 0 0 0
42 1 20.865246518559964 1.9380366261116182e-13 50.735063210024556 0 0 0
44 1 19.477307047270926 2.1866249999999017 54.796177491811015 0 0 0
53 2 18.659779521358118 17.492999999999856 53.12541125124375 0 -1 0
54 2 21.859087996638326 2.1866250000006677 53.204405849315066 0 0 0
1042 1 20.865246518559772 4.373250000000602 50.73506321002514 0 0 0
1053 2 18.659779521356878 4.373249999999103 53.1254112512437 0 0 0
61 1 25.02045550694049 2.1866249999997946 50.44297222354906 0 0 0
62 1 28.733325506680757 17.49299999999956 51.0369246289613 0 -1 0
63 1 22.738588117411435 1.238069186017106e-13 55.38921384824949 0 0 0
64 1 26.076702590272653 2.186625000000133 55.74955307273565 0 0 0
73 2 26.153414146006153 1.6342482922482304e-13 53.12381874976054 0 0 0
1062 1 28.733325506681158 4.373249999999991 51.03692462896108 0 0 0
1063 1 22.73858811741005 4.373249999999779 55.3892138482503 0 0 0
1073 2 26.153414146006437 4.373249999999733 53.12381874976077 0 0 0
74 2 29.534525255701222 2.1866250000000615 53.467776430690215 0 0 0
81 1 32.31899609486129 2.186625000000333 51.392283889240645 0 0 0
83 1 30.074847080463904 3.6588403572654366e-14 55.529273403276434 0 0 0
93 2 33.03300284409712 17.492999999999817 53.700714732679735 0 -1 0
1083 1 30.07484708046366 4.373250000000206 55.52927340327684 0 0 0
1093 2 33.03300284409743 4.373249999999836 53.70071473267996 0 0 0