# LAMMPS data file written by OVITO Basic 3.11.0

4000 atoms
2 atom types

0.0 378.7347 xlo xhi
0.0 17.493 ylo yhi
0.0 117.6004 zlo zhi

Masses

1 208.98038  # Bi
2 127.6  # Te

Atoms  # atomic

1 1 1.261186551 2.186625 51.740647988
2 1 5.048533551 0.0 51.740647988
3 1 0.0 0.0 55.791981768
4 1 3.787347 2.186625 55.791981768
5 1 0.0 0.0 61.808418232
6 1 3.787347 2.186625 61.808418232
7 1 2.526160449 0.0 65.859752012
8 1 6.313507449 2.186625 65.859752012
9 2 0.0 0.0 50.000162068
10 2 3.787347 2.186625 50.000162068
11 2 1.261186551 2.186625 57.533643692
12 2 5.048533551 0.0 57.533643692
13 2 2.526160449 0.0 53.76690288
14 2 6.313507449 2.186625 53.76690288
15 2 2.526160449 0.0 60.066756308
16 2 6.313507449 2.186625 60.066756308
17 2 0.0 0.0 67.600237932
18 2 3.787347 2.186625 67.600237932
19 2 1.261186551 2.186625 63.83349712
20 2 5.048533551 0.0 63.83349712
21 1 8.835880551 2.186625 51.740647988
22 1 12.623227551 0.0 51.740647988
23 1 7.574694 0.0 55.791981768
24 1 11.362041 2.186625 55.791981768
25 1 7.574694 0.0 61.808418232
26 1 11.362041 2.186625 61.808418232
27 1 10.100854449 0.0 65.859752012
28 1 13.888201449 2.186625 65.859752012
29 2 7.574694 0.0 50.000162068
30 2 11.362041 2.186625 50.000162068
31 2 8.835880551 2.186625 57.533643692
32 2 12.623227551 0.0 57.533643692
33 2 10.100854449 0.0 53.76690288
34 2 13.888201449 2.186625 53.76690288
35 2 10.100854449 0.0 60.066756308
36 2 13.888201449 2.186625 60.066756308
37 2 7.574694 0.0 67.600237932
38 2 11.362041 2.186625 67.600237932
39 2 8.835880551 2.186625 63.83349712
40 2 12.623227551 0.0 63.83349712
41 1 16.410574551 2.186625 51.740647988
42 1 20.197921551 0.0 51.740647988
43 1 15.149388 0.0 55.791981768
44 1 18.936735 2.186625 55.791981768
45 1 15.149388 0.0 61.808418232
46 1 18.936735 2.186625 61.808418232
47 1 17.675548449 0.0 65.859752012
48 1 21.462895449 2.186625 65.859752012
49 2 15.149388 0.0 50.000162068
50 2 18.936735 2.186625 50.000162068
51 2 16.410574551 2.186625 57.533643692
52 2 20.197921551 0.0 57.533643692
53 2 17.675548449 0.0 53.76690288
54 2 21.462895449 2.186625 53.76690288
55 2 17.675548449 0.0 60.066756308
56 2 21.462895449 2.186625 60.066756308
57 2 15.149388 0.0 67.600237932
58 2 18.936735 2.186625 67.600237932
59 2 16.410574551 2.186625 63.83349712
60 2 20.197921551 0.0 63.83349712
61 1 23.985268551 2.186625 51.740647988
62 1 27.772615551 0.0 51.740647988
63 1 22.724082 0.0 55.791981768
64 1 26.511429 2.186625 55.791981768
65 1 22.724082 0.0 61.808418232
66 1 26.511429 2.186625 61.808418232
67 1 25.250242449 0.0 65.859752012
68 1 29.037589449 2.186625 65.859752012
69 2 22.724082 0.0 50.000162068
70 2 26.511429 2.186625 50.000162068
71 2 23.985268551 2.186625 57.533643692
72 2 27.772615551 0.0 57.533643692
73 2 25.250242449 0.0 53.76690288
74 2 29.037589449 2.186625 53.76690288
75 2 25.250242449 0.0 60.066756308
76 2 29.037589449 2.186625 60.066756308
77 2 22.724082 0.0 67.600237932
78 2 26.511429 2.186625 67.600237932
79 2 23.985268551 2.186625 63.83349712
80 2 27.772615551 0.0 63.83349712
81 1 31.559962551 2.186625 51.740647988
82 1 35.347309551 0.0 51.740647988
83 1 30.298776 0.0 55.791981768
84 1 34.086123 2.186625 55.791981768
85 1 30.298776 0.0 61.808418232
86 1 34.086123 2.186625 61.808418232
87 1 32.824936449 0.0 65.859752012
88 1 36.612283449 2.186625 65.859752012
89 2 30.298776 0.0 50.000162068
90 2 34.086123 2.186625 50.000162068
91 2 31.559962551 2.186625 57.533643692
92 2 35.347309551 0.0 57.533643692
93 2 32.824936449 0.0 53.76690288
94 2 36.612283449 2.186625 53.76690288
95 2 32.824936449 0.0 60.066756308
96 2 36.612283449 2.186625 60.066756308
97 2 30.298776 0.0 67.600237932
98 2 34.086123 2.186625 67.600237932
99 2 31.559962551 2.186625 63.83349712
100 2 35.347309551 0.0 63.83349712
101 1 39.134656551 2.186625 51.740647988
102 1 42.922003551 0.0 51.740647988
103 1 37.87347 0.0 55.791981768
104 1 41.660817 2.186625 55.791981768
105 1 37.87347 0.0 61.808418232
106 1 41.660817 2.186625 61.808418232
107 1 40.399630449 0.0 65.859752012
108 1 44.186977449 2.186625 65.859752012
109 2 37.87347 0.0 50.000162068
110 2 41.660817 2.186625 50.000162068
111 2 39.134656551 2.186625 57.533643692
112 2 42.922003551 0.0 57.533643692
113 2 40.399630449 0.0 53.76690288
114 2 44.186977449 2.186625 53.76690288
115 2 40.399630449 0.0 60.066756308
116 2 44.186977449 2.186625 60.066756308
117 2 37.87347 0.0 67.600237932
118 2 41.660817 2.186625 67.600237932
119 2 39.134656551 2.186625 63.83349712
120 2 42.922003551 0.0 63.83349712
121 1 46.709350551 2.186625 51.740647988
122 1 50.496697551 0.0 51.740647988
123 1 45.448164 0.0 55.791981768
124 1 49.235511 2.186625 55.791981768
125 1 45.448164 0.0 61.808418232
126 1 49.235511 2.186625 61.808418232
127 1 47.974324449 0.0 65.859752012
128 1 51.761671449 2.186625 65.859752012
129 2 45.448164 0.0 50.000162068
130 2 49.235511 2.186625 50.000162068
131 2 46.709350551 2.186625 57.533643692
132 2 50.496697551 0.0 57.533643692
133 2 47.974324449 0.0 53.76690288
134 2 51.761671449 2.186625 53.76690288
135 2 47.974324449 0.0 60.066756308
136 2 51.761671449 2.186625 60.066756308
137 2 45.448164 0.0 67.600237932
138 2 49.235511 2.186625 67.600237932
139 2 46.709350551 2.186625 63.83349712
140 2 50.496697551 0.0 63.83349712
141 1 54.284044551 2.186625 51.740647988
142 1 58.071391551 0.0 51.740647988
143 1 53.022858 0.0 55.791981768
144 1 56.810205 2.186625 55.791981768
145 1 53.022858 0.0 61.808418232
146 1 56.810205 2.186625 61.808418232
147 1 55.549018449 0.0 65.859752012
148 1 59.336365449 2.186625 65.859752012
149 2 53.022858 0.0 50.000162068
150 2 56.810205 2.186625 50.000162068
151 2 54.284044551 2.186625 57.533643692
152 2 58.071391551 0.0 57.533643692
153 2 55.549018449 0.0 53.76690288
154 2 59.336365449 2.186625 53.76690288
155 2 55.549018449 0.0 60.066756308
156 2 59.336365449 2.186625 60.066756308
157 2 53.022858 0.0 67.600237932
158 2 56.810205 2.186625 67.600237932
159 2 54.284044551 2.186625 63.83349712
160 2 58.071391551 0.0 63.83349712
161 1 61.858738551 2.186625 51.740647988
162 1 65.646085551 0.0 51.740647988
163 1 60.597552 0.0 55.791981768
164 1 64.384899 2.186625 55.791981768
165 1 60.597552 0.0 61.808418232
166 1 64.384899 2.186625 61.808418232
167 1 63.123712449 0.0 65.859752012
168 1 66.911059449 2.186625 65.859752012
169 2 60.597552 0.0 50.000162068
170 2 64.384899 2.186625 50.000162068
171 2 61.858738551 2.186625 57.533643692
172 2 65.646085551 0.0 57.533643692
173 2 63.123712449 0.0 53.76690288
174 2 66.911059449 2.186625 53.76690288
175 2 63.123712449 0.0 60.066756308
176 2 66.911059449 2.186625 60.066756308
177 2 60.597552 0.0 67.600237932
178 2 64.384899 2.186625 67.600237932
179 2 61.858738551 2.186625 63.83349712
180 2 65.646085551 0.0 63.83349712
181 1 69.433432551 2.186625 51.740647988
182 1 73.220779551 0.0 51.740647988
183 1 68.172246 0.0 55.791981768
184 1 71.959593 2.186625 55.791981768
185 1 68.172246 0.0 61.808418232
186 1 71.959593 2.186625 61.808418232
187 1 70.698406449 0.0 65.859752012
188 1 74.485753449 2.186625 65.859752012
189 2 68.172246 0.0 50.000162068
190 2 71.959593 2.186625 50.000162068
191 2 69.433432551 2.186625 57.533643692
192 2 73.220779551 0.0 57.533643692
193 2 70.698406449 0.0 53.76690288
194 2 74.485753449 2.186625 53.76690288
195 2 70.698406449 0.0 60.066756308
196 2 74.485753449 2.186625 60.066756308
197 2 68.172246 0.0 67.600237932
198 2 71.959593 2.186625 67.600237932
199 2 69.433432551 2.186625 63.83349712
200 2 73.220779551 0.0 63.83349712
201 1 77.008126551 2.186625 51.740647988
202 1 80.795473551 0.0 51.740647988
203 1 75.74694 0.0 55.791981768
204 1 79.534287 2.186625 55.791981768
205 1 75.74694 0.0 61.808418232
206 1 79.534287 2.186625 61.808418232
207 1 78.273100449 0.0 65.859752012
208 1 82.060447449 2.186625 65.859752012
209 2 75.74694 0.0 50.000162068
210 2 79.534287 2.186625 50.000162068
211 2 77.008126551 2.186625 57.533643692
212 2 80.795473551 0.0 57.533643692
213 2 78.273100449 0.0 53.76690288
214 2 82.060447449 2.186625 53.76690288
215 2 78.273100449 0.0 60.066756308
216 2 82.060447449 2.186625 60.066756308
217 2 75.74694 0.0 67.600237932
218 2 79.534287 2.186625 67.600237932
219 2 77.008126551 2.186625 63.83349712
220 2 80.795473551 0.0 63.83349712
221 1 84.582820551 2.186625 51.740647988
222 1 88.370167551 0.0 51.740647988
223 1 83.321634 0.0 55.791981768
224 1 87.108981 2.186625 55.791981768
225 1 83.321634 0.0 61.808418232
226 1 87.108981 2.186625 61.808418232
227 1 85.847794449 0.0 65.859752012
228 1 89.635141449 2.186625 65.859752012
229 2 83.321634 0.0 50.000162068
230 2 87.108981 2.186625 50.000162068
231 2 84.582820551 2.186625 57.533643692
232 2 88.370167551 0.0 57.533643692
233 2 85.847794449 0.0 53.76690288
234 2 89.635141449 2.186625 53.76690288
235 2 85.847794449 0.0 60.066756308
236 2 89.635141449 2.186625 60.066756308
237 2 83.321634 0.0 67.600237932
238 2 87.108981 2.186625 67.600237932
239 2 84.582820551 2.186625 63.83349712
240 2 88.370167551 0.0 63.83349712
241 1 92.157514551 2.186625 51.740647988
242 1 95.944861551 0.0 51.740647988
243 1 90.896328 0.0 55.791981768
244 1 94.683675 2.186625 55.791981768
245 1 90.896328 0.0 61.808418232
246 1 94.683675 2.186625 61.808418232
247 1 93.422488449 0.0 65.859752012
248 1 97.209835449 2.186625 65.859752012
249 2 90.896328 0.0 50.000162068
250 2 94.683675 2.186625 50.000162068
251 2 92.157514551 2.186625 57.533643692
252 2 95.944861551 0.0 57.533643692
253 2 93.422488449 0.0 53.76690288
254 2 97.209835449 2.186625 53.76690288
255 2 93.422488449 0.0 60.066756308
256 2 97.209835449 2.186625 60.066756308
257 2 90.896328 0.0 67.600237932
258 2 94.683675 2.186625 67.600237932
259 2 92.157514551 2.186625 63.83349712
260 2 95.944861551 0.0 63.83349712
261 1 99.732208551 2.186625 51.740647988
262 1 103.519555551 0.0 51.740647988
263 1 98.471022 0.0 55.791981768
264 1 102.258369 2.186625 55.791981768
265 1 98.471022 0.0 61.808418232
266 1 102.258369 2.186625 61.808418232
267 1 100.997182449 0.0 65.859752012
268 1 104.784529449 2.186625 65.859752012
269 2 98.471022 0.0 50.000162068
270 2 102.258369 2.186625 50.000162068
271 2 99.732208551 2.186625 57.533643692
272 2 103.519555551 0.0 57.533643692
273 2 100.997182449 0.0 53.76690288
274 2 104.784529449 2.186625 53.76690288
275 2 100.997182449 0.0 60.066756308
276 2 104.784529449 2.186625 60.066756308
277 2 98.471022 0.0 67.600237932
278 2 102.258369 2.186625 67.600237932
279 2 99.732208551 2.186625 63.83349712
280 2 103.519555551 0.0 63.83349712
281 1 107.306902551 2.186625 51.740647988
282 1 111.094249551 0.0 51.740647988
283 1 106.045716 0.0 55.791981768
284 1 109.833063 2.186625 55.791981768
285 1 106.045716 0.0 61.808418232
286 1 109.833063 2.186625 61.808418232
287 1 108.571876449 0.0 65.859752012
288 1 112.359223449 2.186625 65.859752012
289 2 106.045716 0.0 50.000162068
290 2 109.833063 2.186625 50.000162068
291 2 107.306902551 2.186625 57.533643692
292 2 111.094249551 0.0 57.533643692
293 2 108.571876449 0.0 53.76690288
294 2 112.359223449 2.186625 53.76690288
295 2 108.571876449 0.0 60.066756308
296 2 112.359223449 2.186625 60.066756308
297 2 106.045716 0.0 67.600237932
298 2 109.833063 2.186625 67.600237932
299 2 107.306902551 2.186625 63.83349712
300 2 111.094249551 0.0 63.83349712
301 1 114.881596551 2.186625 51.740647988
302 1 118.668943551 0.0 51.740647988
303 1 113.62041 0.0 55.791981768
304 1 117.407757 2.186625 55.791981768
305 1 113.62041 0.0 61.808418232
306 1 117.407757 2.186625 61.808418232
307 1 116.146570449 0.0 65.859752012
308 1 119.933917449 2.186625 65.859752012
309 2 113.62041 0.0 50.000162068
310 2 117.407757 2.186625 50.000162068
311 2 114.881596551 2.186625 57.533643692
312 2 118.668943551 0.0 57.533643692
313 2 116.146570449 0.0 53.76690288
314 2 119.933917449 2.186625 53.76690288
315 2 116.146570449 0.0 60.066756308
316 2 119.933917449 2.186625 60.066756308
317 2 113.62041 0.0 67.600237932
318 2 117.407757 2.186625 67.600237932
319 2 114.881596551 2.186625 63.83349712
320 2 118.668943551 0.0 63.83349712
321 1 122.456290551 2.186625 51.740647988
322 1 126.243637551 0.0 51.740647988
323 1 121.195104 0.0 55.791981768
324 1 124.982451 2.186625 55.791981768
325 1 121.195104 0.0 61.808418232
326 1 124.982451 2.186625 61.808418232
327 1 123.721264449 0.0 65.859752012
328 1 127.508611449 2.186625 65.859752012
329 2 121.195104 0.0 50.000162068
330 2 124.982451 2.186625 50.000162068
331 2 122.456290551 2.186625 57.533643692
332 2 126.243637551 0.0 57.533643692
333 2 123.721264449 0.0 53.76690288
334 2 127.508611449 2.186625 53.76690288
335 2 123.721264449 0.0 60.066756308
336 2 127.508611449 2.186625 60.066756308
337 2 121.195104 0.0 67.600237932
338 2 124.982451 2.186625 67.600237932
339 2 122.456290551 2.186625 63.83349712
340 2 126.243637551 0.0 63.83349712
341 1 130.030984551 2.186625 51.740647988
342 1 133.818331551 0.0 51.740647988
343 1 128.769798 0.0 55.791981768
344 1 132.557145 2.186625 55.791981768
345 1 128.769798 0.0 61.808418232
346 1 132.557145 2.186625 61.808418232
347 1 131.295958449 0.0 65.859752012
348 1 135.083305449 2.186625 65.859752012
349 2 128.769798 0.0 50.000162068
350 2 132.557145 2.186625 50.000162068
351 2 130.030984551 2.186625 57.533643692
352 2 133.818331551 0.0 57.533643692
353 2 131.295958449 0.0 53.76690288
354 2 135.083305449 2.186625 53.76690288
355 2 131.295958449 0.0 60.066756308
356 2 135.083305449 2.186625 60.066756308
357 2 128.769798 0.0 67.600237932
358 2 132.557145 2.186625 67.600237932
359 2 130.030984551 2.186625 63.83349712
360 2 133.818331551 0.0 63.83349712
361 1 137.605678551 2.186625 51.740647988
362 1 141.393025551 0.0 51.740647988
363 1 136.344492 0.0 55.791981768
364 1 140.131839 2.186625 55.791981768
365 1 136.344492 0.0 61.808418232
366 1 140.131839 2.186625 61.808418232
367 1 138.870652449 0.0 65.859752012
368 1 142.657999449 2.186625 65.859752012
369 2 136.344492 0.0 50.000162068
370 2 140.131839 2.186625 50.000162068
371 2 137.605678551 2.186625 57.533643692
372 2 141.393025551 0.0 57.533643692
373 2 138.870652449 0.0 53.76690288
374 2 142.657999449 2.186625 53.76690288
375 2 138.870652449 0.0 60.066756308
376 2 142.657999449 2.186625 60.066756308
377 2 136.344492 0.0 67.600237932
378 2 140.131839 2.186625 67.600237932
379 2 137.605678551 2.186625 63.83349712
380 2 141.393025551 0.0 63.83349712
381 1 145.180372551 2.186625 51.740647988
382 1 148.967719551 0.0 51.740647988
383 1 143.919186 0.0 55.791981768
384 1 147.706533 2.186625 55.791981768
385 1 143.919186 0.0 61.808418232
386 1 147.706533 2.186625 61.808418232
387 1 146.445346449 0.0 65.859752012
388 1 150.232693449 2.186625 65.859752012
389 2 143.919186 0.0 50.000162068
390 2 147.706533 2.186625 50.000162068
391 2 145.180372551 2.186625 57.533643692
392 2 148.967719551 0.0 57.533643692
393 2 146.445346449 0.0 53.76690288
394 2 150.232693449 2.186625 53.76690288
395 2 146.445346449 0.0 60.066756308
396 2 150.232693449 2.186625 60.066756308
397 2 143.919186 0.0 67.600237932
398 2 147.706533 2.186625 67.600237932
399 2 145.180372551 2.186625 63.83349712
400 2 148.967719551 0.0 63.83349712
401 1 152.755066551 2.186625 51.740647988
402 1 156.542413551 0.0 51.740647988
403 1 151.49388 0.0 55.791981768
404 1 155.281227 2.186625 55.791981768
405 1 151.49388 0.0 61.808418232
406 1 155.281227 2.186625 61.808418232
407 1 154.020040449 0.0 65.859752012
408 1 157.807387449 2.186625 65.859752012
409 2 151.49388 0.0 50.000162068
410 2 155.281227 2.186625 50.000162068
411 2 152.755066551 2.186625 57.533643692
412 2 156.542413551 0.0 57.533643692
413 2 154.020040449 0.0 53.76690288
414 2 157.807387449 2.186625 53.76690288
415 2 154.020040449 0.0 60.066756308
416 2 157.807387449 2.186625 60.066756308
417 2 151.49388 0.0 67.600237932
418 2 155.281227 2.186625 67.600237932
419 2 152.755066551 2.186625 63.83349712
420 2 156.542413551 0.0 63.83349712
421 1 160.329760551 2.186625 51.740647988
422 1 164.117107551 0.0 51.740647988
423 1 159.068574 0.0 55.791981768
424 1 162.855921 2.186625 55.791981768
425 1 159.068574 0.0 61.808418232
426 1 162.855921 2.186625 61.808418232
427 1 161.594734449 0.0 65.859752012
428 1 165.382081449 2.186625 65.859752012
429 2 159.068574 0.0 50.000162068
430 2 162.855921 2.186625 50.000162068
431 2 160.329760551 2.186625 57.533643692
432 2 164.117107551 0.0 57.533643692
433 2 161.594734449 0.0 53.76690288
434 2 165.382081449 2.186625 53.76690288
435 2 161.594734449 0.0 60.066756308
436 2 165.382081449 2.186625 60.066756308
437 2 159.068574 0.0 67.600237932
438 2 162.855921 2.186625 67.600237932
439 2 160.329760551 2.186625 63.83349712
440 2 164.117107551 0.0 63.83349712
441 1 167.904454551 2.186625 51.740647988
442 1 171.691801551 0.0 51.740647988
443 1 166.643268 0.0 55.791981768
444 1 170.430615 2.186625 55.791981768
445 1 166.643268 0.0 61.808418232
446 1 170.430615 2.186625 61.808418232
447 1 169.169428449 0.0 65.859752012
448 1 172.956775449 2.186625 65.859752012
449 2 166.643268 0.0 50.000162068
450 2 170.430615 2.186625 50.000162068
451 2 167.904454551 2.186625 57.533643692
452 2 171.691801551 0.0 57.533643692
453 2 169.169428449 0.0 53.76690288
454 2 172.956775449 2.186625 53.76690288
455 2 169.169428449 0.0 60.066756308
456 2 172.956775449 2.186625 60.066756308
457 2 166.643268 0.0 67.600237932
458 2 170.430615 2.186625 67.600237932
459 2 167.904454551 2.186625 63.83349712
460 2 171.691801551 0.0 63.83349712
461 1 175.479148551 2.186625 51.740647988
462 1 179.266495551 0.0 51.740647988
463 1 174.217962 0.0 55.791981768
464 1 178.005309 2.186625 55.791981768
465 1 174.217962 0.0 61.808418232
466 1 178.005309 2.186625 61.808418232
467 1 176.744122449 0.0 65.859752012
468 1 180.531469449 2.186625 65.859752012
469 2 174.217962 0.0 50.000162068
470 2 178.005309 2.186625 50.000162068
471 2 175.479148551 2.186625 57.533643692
472 2 179.266495551 0.0 57.533643692
473 2 176.744122449 0.0 53.76690288
474 2 180.531469449 2.186625 53.76690288
475 2 176.744122449 0.0 60.066756308
476 2 180.531469449 2.186625 60.066756308
477 2 174.217962 0.0 67.600237932
478 2 178.005309 2.186625 67.600237932
479 2 175.479148551 2.186625 63.83349712
480 2 179.266495551 0.0 63.83349712
481 1 183.053842551 2.186625 51.740647988
482 1 186.841189551 0.0 51.740647988
483 1 181.792656 0.0 55.791981768
484 1 185.580003 2.186625 55.791981768
485 1 181.792656 0.0 61.808418232
486 1 185.580003 2.186625 61.808418232
487 1 184.318816449 0.0 65.859752012
488 1 188.106163449 2.186625 65.859752012
489 2 181.792656 0.0 50.000162068
490 2 185.580003 2.186625 50.000162068
491 2 183.053842551 2.186625 57.533643692
492 2 186.841189551 0.0 57.533643692
493 2 184.318816449 0.0 53.76690288
494 2 188.106163449 2.186625 53.76690288
495 2 184.318816449 0.0 60.066756308
496 2 188.106163449 2.186625 60.066756308
497 2 181.792656 0.0 67.600237932
498 2 185.580003 2.186625 67.600237932
499 2 183.053842551 2.186625 63.83349712
500 2 186.841189551 0.0 63.83349712
501 1 190.628536551 2.186625 51.740647988
502 1 194.415883551 0.0 51.740647988
503 1 189.36735 0.0 55.791981768
504 1 193.154697 2.186625 55.791981768
505 1 189.36735 0.0 61.808418232
506 1 193.154697 2.186625 61.808418232
507 1 191.893510449 0.0 65.859752012
508 1 195.680857449 2.186625 65.859752012
509 2 189.36735 0.0 50.000162068
510 2 193.154697 2.186625 50.000162068
511 2 190.628536551 2.186625 57.533643692
512 2 194.415883551 0.0 57.533643692
513 2 191.893510449 0.0 53.76690288
514 2 195.680857449 2.186625 53.76690288
515 2 191.893510449 0.0 60.066756308
516 2 195.680857449 2.186625 60.066756308
517 2 189.36735 0.0 67.600237932
518 2 193.154697 2.186625 67.600237932
519 2 190.628536551 2.186625 63.83349712
520 2 194.415883551 0.0 63.83349712
521 1 198.203230551 2.186625 51.740647988
522 1 201.990577551 0.0 51.740647988
523 1 196.942044 0.0 55.791981768
524 1 200.729391 2.186625 55.791981768
525 1 196.942044 0.0 61.808418232
526 1 200.729391 2.186625 61.808418232
527 1 199.468204449 0.0 65.859752012
528 1 203.255551449 2.186625 65.859752012
529 2 196.942044 0.0 50.000162068
530 2 200.729391 2.186625 50.000162068
531 2 198.203230551 2.186625 57.533643692
532 2 201.990577551 0.0 57.533643692
533 2 199.468204449 0.0 53.76690288
534 2 203.255551449 2.186625 53.76690288
535 2 199.468204449 0.0 60.066756308
536 2 203.255551449 2.186625 60.066756308
537 2 196.942044 0.0 67.600237932
538 2 200.729391 2.186625 67.600237932
539 2 198.203230551 2.186625 63.83349712
540 2 201.990577551 0.0 63.83349712
541 1 205.777924551 2.186625 51.740647988
542 1 209.565271551 0.0 51.740647988
543 1 204.516738 0.0 55.791981768
544 1 208.304085 2.186625 55.791981768
545 1 204.516738 0.0 61.808418232
546 1 208.304085 2.186625 61.808418232
547 1 207.042898449 0.0 65.859752012
548 1 210.830245449 2.186625 65.859752012
549 2 204.516738 0.0 50.000162068
550 2 208.304085 2.186625 50.000162068
551 2 205.777924551 2.186625 57.533643692
552 2 209.565271551 0.0 57.533643692
553 2 207.042898449 0.0 53.76690288
554 2 210.830245449 2.186625 53.76690288
555 2 207.042898449 0.0 60.066756308
556 2 210.830245449 2.186625 60.066756308
557 2 204.516738 0.0 67.600237932
558 2 208.304085 2.186625 67.600237932
559 2 205.777924551 2.186625 63.83349712
560 2 209.565271551 0.0 63.83349712
561 1 213.352618551 2.186625 51.740647988
562 1 217.139965551 0.0 51.740647988
563 1 212.091432 0.0 55.791981768
564 1 215.878779 2.186625 55.791981768
565 1 212.091432 0.0 61.808418232
566 1 215.878779 2.186625 61.808418232
567 1 214.617592449 0.0 65.859752012
568 1 218.404939449 2.186625 65.859752012
569 2 212.091432 0.0 50.000162068
570 2 215.878779 2.186625 50.000162068
571 2 213.352618551 2.186625 57.533643692
572 2 217.139965551 0.0 57.533643692
573 2 214.617592449 0.0 53.76690288
574 2 218.404939449 2.186625 53.76690288
575 2 214.617592449 0.0 60.066756308
576 2 218.404939449 2.186625 60.066756308
577 2 212.091432 0.0 67.600237932
578 2 215.878779 2.186625 67.600237932
579 2 213.352618551 2.186625 63.83349712
580 2 217.139965551 0.0 63.83349712
581 1 220.927312551 2.186625 51.740647988
582 1 224.714659551 0.0 51.740647988
583 1 219.666126 0.0 55.791981768
584 1 223.453473 2.186625 55.791981768
585 1 219.666126 0.0 61.808418232
586 1 223.453473 2.186625 61.808418232
587 1 222.192286449 0.0 65.859752012
588 1 225.979633449 2.186625 65.859752012
589 2 219.666126 0.0 50.000162068
590 2 223.453473 2.186625 50.000162068
591 2 220.927312551 2.186625 57.533643692
592 2 224.714659551 0.0 57.533643692
593 2 222.192286449 0.0 53.76690288
594 2 225.979633449 2.186625 53.76690288
595 2 222.192286449 0.0 60.066756308
596 2 225.979633449 2.186625 60.066756308
597 2 219.666126 0.0 67.600237932
598 2 223.453473 2.186625 67.600237932
599 2 220.927312551 2.186625 63.83349712
600 2 224.714659551 0.0 63.83349712
601 1 228.502006551 2.186625 51.740647988
602 1 232.289353551 0.0 51.740647988
603 1 227.24082 0.0 55.791981768
604 1 231.028167 2.186625 55.791981768
605 1 227.24082 0.0 61.808418232
606 1 231.028167 2.186625 61.808418232
607 1 229.766980449 0.0 65.859752012
608 1 233.554327449 2.186625 65.859752012
609 2 227.24082 0.0 50.000162068
610 2 231.028167 2.186625 50.000162068
611 2 228.502006551 2.186625 57.533643692
612 2 232.289353551 0.0 57.533643692
613 2 229.766980449 0.0 53.76690288
614 2 233.554327449 2.186625 53.76690288
615 2 229.766980449 0.0 60.066756308
616 2 233.554327449 2.186625 60.066756308
617 2 227.24082 0.0 67.600237932
618 2 231.028167 2.186625 67.600237932
619 2 228.502006551 2.186625 63.83349712
620 2 232.289353551 0.0 63.83349712
621 1 236.076700551 2.186625 51.740647988
622 1 239.864047551 0.0 51.740647988
623 1 234.815514 0.0 55.791981768
624 1 238.602861 2.186625 55.791981768
625 1 234.815514 0.0 61.808418232
626 1 238.602861 2.186625 61.808418232
627 1 237.341674449 0.0 65.859752012
628 1 241.129021449 2.186625 65.859752012
629 2 234.815514 0.0 50.000162068
630 2 238.602861 2.186625 50.000162068
631 2 236.076700551 2.186625 57.533643692
632 2 239.864047551 0.0 57.533643692
633 2 237.341674449 0.0 53.76690288
634 2 241.129021449 2.186625 53.76690288
635 2 237.341674449 0.0 60.066756308
636 2 241.129021449 2.186625 60.066756308
637 2 234.815514 0.0 67.600237932
638 2 238.602861 2.186625 67.600237932
639 2 236.076700551 2.186625 63.83349712
640 2 239.864047551 0.0 63.83349712
641 1 243.651394551 2.186625 51.740647988
642 1 247.438741551 0.0 51.740647988
643 1 242.390208 0.0 55.791981768
644 1 246.177555 2.186625 55.791981768
645 1 242.390208 0.0 61.808418232
646 1 246.177555 2.186625 61.808418232
647 1 244.916368449 0.0 65.859752012
648 1 248.703715449 2.186625 65.859752012
649 2 242.390208 0.0 50.000162068
650 2 246.177555 2.186625 50.000162068
651 2 243.651394551 2.186625 57.533643692
652 2 247.438741551 0.0 57.533643692
653 2 244.916368449 0.0 53.76690288
654 2 248.703715449 2.186625 53.76690288
655 2 244.916368449 0.0 60.066756308
656 2 248.703715449 2.186625 60.066756308
657 2 242.390208 0.0 67.600237932
658 2 246.177555 2.186625 67.600237932
659 2 243.651394551 2.186625 63.83349712
660 2 247.438741551 0.0 63.83349712
661 1 251.226088551 2.186625 51.740647988
662 1 255.013435551 0.0 51.740647988
663 1 249.964902 0.0 55.791981768
664 1 253.752249 2.186625 55.791981768
665 1 249.964902 0.0 61.808418232
666 1 253.752249 2.186625 61.808418232
667 1 252.491062449 0.0 65.859752012
668 1 256.278409449 2.186625 65.859752012
669 2 249.964902 0.0 50.000162068
670 2 253.752249 2.186625 50.000162068
671 2 251.226088551 2.186625 57.533643692
672 2 255.013435551 0.0 57.533643692
673 2 252.491062449 0.0 53.76690288
674 2 256.278409449 2.186625 53.76690288
675 2 252.491062449 0.0 60.066756308
676 2 256.278409449 2.186625 60.066756308
677 2 249.964902 0.0 67.600237932
678 2 253.752249 2.186625 67.600237932
679 2 251.226088551 2.186625 63.83349712
680 2 255.013435551 0.0 63.83349712
681 1 258.800782551 2.186625 51.740647988
682 1 262.588129551 0.0 51.740647988
683 1 257.539596 0.0 55.791981768
684 1 261.326943 2.186625 55.791981768
685 1 257.539596 0.0 61.808418232
686 1 261.326943 2.186625 61.808418232
687 1 260.065756449 0.0 65.859752012
688 1 263.853103449 2.186625 65.859752012
689 2 257.539596 0.0 50.000162068
690 2 261.326943 2.186625 50.000162068
691 2 258.800782551 2.186625 57.533643692
692 2 262.588129551 0.0 57.533643692
693 2 260.065756449 0.0 53.76690288
694 2 263.853103449 2.186625 53.76690288
695 2 260.065756449 0.0 60.066756308
696 2 263.853103449 2.186625 60.066756308
697 2 257.539596 0.0 67.600237932
698 2 261.326943 2.186625 67.600237932
699 2 258.800782551 2.186625 63.83349712
700 2 262.588129551 0.0 63.83349712
701 1 266.375476551 2.186625 51.740647988
702 1 270.162823551 0.0 51.740647988
703 1 265.11429 0.0 55.791981768
704 1 268.901637 2.186625 55.791981768
705 1 265.11429 0.0 61.808418232
706 1 268.901637 2.186625 61.808418232
707 1 267.640450449 0.0 65.859752012
708 1 271.427797449 2.186625 65.859752012
709 2 265.11429 0.0 50.000162068
710 2 268.901637 2.186625 50.000162068
711 2 266.375476551 2.186625 57.533643692
712 2 270.162823551 0.0 57.533643692
713 2 267.640450449 0.0 53.76690288
714 2 271.427797449 2.186625 53.76690288
715 2 267.640450449 0.0 60.066756308
716 2 271.427797449 2.186625 60.066756308
717 2 265.11429 0.0 67.600237932
718 2 268.901637 2.186625 67.600237932
719 2 266.375476551 2.186625 63.83349712
720 2 270.162823551 0.0 63.83349712
721 1 273.950170551 2.186625 51.740647988
722 1 277.737517551 0.0 51.740647988
723 1 272.688984 0.0 55.791981768
724 1 276.476331 2.186625 55.791981768
725 1 272.688984 0.0 61.808418232
726 1 276.476331 2.186625 61.808418232
727 1 275.215144449 0.0 65.859752012
728 1 279.002491449 2.186625 65.859752012
729 2 272.688984 0.0 50.000162068
730 2 276.476331 2.186625 50.000162068
731 2 273.950170551 2.186625 57.533643692
732 2 277.737517551 0.0 57.533643692
733 2 275.215144449 0.0 53.76690288
734 2 279.002491449 2.186625 53.76690288
735 2 275.215144449 0.0 60.066756308
736 2 279.002491449 2.186625 60.066756308
737 2 272.688984 0.0 67.600237932
738 2 276.476331 2.186625 67.600237932
739 2 273.950170551 2.186625 63.83349712
740 2 277.737517551 0.0 63.83349712
741 1 281.524864551 2.186625 51.740647988
742 1 285.312211551 0.0 51.740647988
743 1 280.263678 0.0 55.791981768
744 1 284.051025 2.186625 55.791981768
745 1 280.263678 0.0 61.808418232
746 1 284.051025 2.186625 61.808418232
747 1 282.789838449 0.0 65.859752012
748 1 286.577185449 2.186625 65.859752012
749 2 280.263678 0.0 50.000162068
750 2 284.051025 2.186625 50.000162068
751 2 281.524864551 2.186625 57.533643692
752 2 285.312211551 0.0 57.533643692
753 2 282.789838449 0.0 53.76690288
754 2 286.577185449 2.186625 53.76690288
755 2 282.789838449 0.0 60.066756308
756 2 286.577185449 2.186625 60.066756308
757 2 280.263678 0.0 67.600237932
758 2 284.051025 2.186625 67.600237932
759 2 281.524864551 2.186625 63.83349712
760 2 285.312211551 0.0 63.83349712
761 1 289.099558551 2.186625 51.740647988
762 1 292.886905551 0.0 51.740647988
763 1 287.838372 0.0 55.791981768
764 1 291.625719 2.186625 55.791981768
765 1 287.838372 0.0 61.808418232
766 1 291.625719 2.186625 61.808418232
767 1 290.364532449 0.0 65.859752012
768 1 294.151879449 2.186625 65.859752012
769 2 287.838372 0.0 50.000162068
770 2 291.625719 2.186625 50.000162068
771 2 289.099558551 2.186625 57.533643692
772 2 292.886905551 0.0 57.533643692
773 2 290.364532449 0.0 53.76690288