LAMMPS data file via write_data, version 2 Aug 2023, timestep = 1000, units = metal

4550 atoms
2 atom types

0 378.7347 xlo xhi
0 17.493 ylo yhi
0 117.6004 zlo zhi

Masses

1 208.98038
2 127.6

Atoms # atomic

9 2 0.6541722977034105 17.49299999999993 50.000162068 0 -1 0
10 2 4.38607715278551 2.186624999999962 50.000162068 0 0 0
1009 2 0.6541722977034599 4.373250000000229 50.000162068 0 0 0
29 2 8.034540108384887 17.492999999999853 50.000162068 0 -1 0
1029 2 8.03454010838494 4.373249999999921 50.000162068 0 0 0
30 2 11.43657106855356 2.186624999999992 50.000162068 0 0 0
49 2 15.158970726830393 17.49299999999973 49.953694920849856 0 -1 0
1049 2 15.158970726830447 4.373250000000577 49.9536949208501 0 0 0
50 2 19.052919150959113 2.1866250000003684 49.21695981782025 0 0 0
69 2 23.98330010026879 1.0493906949911732e-13 49.14100489190011 0 0 0
70 2 27.425136318465896 2.1866250000001974 48.89432505920121 0 0 0
1069 2 23.983300100268565 4.373250000000048 49.14100489190013 0 0 0
89 2 31.168685442378592 17.492999999999828 49.19954878271874 0 -1 0
1089 2 31.168685442378187 4.373249999999974 49.199548782719496 0 0 0
90 2 34.86488074273991 2.1866250000000855 49.71136356202366 0 0 0
109 2 38.16996870977285 17.492999999999725 49.99912384478719 0 -1 0
1109 2 38.16996870977279 4.3732499999998655 49.99912384478696 0 0 0
110 2 41.66335344077535 2.186624999999963 50.13801800359458 0 0 0
129 2 45.22966135743963 17.49299999999982 50.180245775705735 0 -1 0
130 2 48.74387704114015 2.1866250000000464 50.270598616824216 0 0 0
1129 2 45.22966135743995 4.373249999999966 50.180245775705515 0 0 0
149 2 52.59696381185256 17.492999999999995 50.25439393824059 0 -1 0
1149 2 52.59696381185258 4.373249999999843 50.25439393824083 0 0 0
150 2 56.5469507946384 2.1866250000001 50.21141250196342 0 0 0
169 2 60.45146256049597 17.49299999999994 50.179281778434145 0 -1 0
1169 2 60.451462560496026 4.373250000000045 50.179281778434294 0 0 0
170 2 64.30661583103446 2.186625000000119 50.15710655319946 0 0 0
189 2 68.1315330629124 17.492999999999764 50.14277648867122 0 -1 0
190 2 71.93720221519631 2.186625000000109 50.135418909056035 0 0 0
1189 2 68.13153306291248 4.37324999999997 50.142776488671025 0 0 0
209 2 75.7317955318757 3.1871707731244836e-14 50.132523049574196 0 0 0
1209 2 75.73179553187553 4.373249999999893 50.13252304957405 0 0 0
210 2 79.52145099009053 2.1866249999999603 50.13162266290513 0 0 0
229 2 83.30941539357721 17.492999999999984 50.13138519246957 0 -1 0
1229 2 83.30941539357671 4.373250000000098 50.131385192469686 0 0 0
230 2 87.09690708231659 2.1866250000000527 50.13132917925083 0 0 0
249 2 90.88428478991511 4.578581968753957e-13 50.13131705445797 0 0 0
1249 2 90.88428478991494 4.373249999999617 50.131317054457554 0 0 0
250 2 94.67163783788538 2.186625000001341 50.131314622320026 0 0 0
269 2 98.45898595231652 17.49299999996736 50.131314170104105 0 -1 0
1269 2 98.45898595232028 4.373250000050309 50.131314170105476 0 0 0
270 2 102.24633312549159 2.1866250000908924 50.131314077092014 0 0 0
289 2 106.03368003831189 1.7693112628061236e-09 50.13131397139729 0 0 0
290 2 109.82102644163962 2.1866249973848673 50.13131345922252 0 0 0
1289 2 106.03368003909885 4.373249998040817 50.13131397188843 0 0 0
309 2 113.60837040420402 17.49299995218335 50.13131074668733 0 -1 0
1309 2 113.60837041757861 4.373250032433019 50.131310756905236 0 0 0
310 2 117.39570133300003 2.18662480289637 50.131296786715524 0 0 0
329 2 121.18296477808984 17.4929995098225 50.13122973412842 0 -1 0
1329 2 121.18296340249925 4.373248920103983 50.13122863829134 0 0 0
330 2 124.96989399665952 2.1866277237160436 50.13091292412192 0 0 0
349 2 128.75546328397414 2.798102340365559e-05 50.129539877681715 0 0 0
350 2 132.53703541376444 2.186695175229184 50.124774088379596 0 0 0
1349 2 128.75546824503076 4.373272105738375 50.129544053614985 0 0 0
369 2 136.31130921247683 17.4928035623573 50.1134634616794 0 -1 0
1369 2 136.31153147985015 4.373329344887039 50.113657590439026 0 0 0
370 2 140.0801196907261 2.1863478110317134 50.09982838073459 0 0 0
389 2 143.84698557940717 17.492939055508874 50.10281569038733 0 -1 0
1389 2 143.84743250016305 4.373116901119478 50.103430556916095 0 0 0
390 2 147.59826249121102 2.1862085214252702 50.1314316388033 0 0 0
409 2 151.3057237566939 17.48911534444273 50.13668078788114 0 -1 0
410 2 154.97748044065622 2.182371417125658 50.068694932757396 0 0 0
1409 2 151.3104234817289 4.370534089548965 50.13814078873967 0 0 0
429 2 158.63266896171768 17.484989150695476 49.97947369019979 0 -1 0
1429 2 158.6385974125622 4.373866677810268 49.98369612165778 0 0 0
430 2 162.2352253688338 2.1821103603231573 49.85324690954418 0 0 0
449 2 165.68525576699412 17.474518299425522 49.44123572301281 0 -1 0
1449 2 165.70318192587192 4.358384252317765 49.43785785009807 0 0 0
450 2 169.24635089185273 2.1722761125686225 48.92334405251574 0 0 0
469 2 173.02137409832136 17.44176937372596 48.499536831238764 0 -1 0
470 2 177.0749181780728 2.0937915233009514 48.11705144110776 0 0 0
1469 2 173.01176589385432 4.320053701273639 48.470589490729196 0 0 0
489 2 181.15616634349297 17.445890810457946 47.7589420289582 0 -1 0
1489 2 181.18898980966122 4.317426243098237 47.86579623023084 0 0 0
490 2 185.25943249698977 2.1823637065031622 47.848091882709085 0 0 0
509 2 189.42672704559067 17.438660373446474 48.00908153143451 0 -1 0
510 2 193.41254718225412 2.1680725503692524 48.539247018536145 0 0 0
1509 2 189.49875315533694 4.297857182781686 48.154179731017805 0 0 0
529 2 197.19222226819173 17.45542123261553 48.92044462702942 0 -1 0
1529 2 197.48114048741004 4.331021531276906 48.83150782217307 0 0 0
530 2 201.19852770445468 2.0696242592319694 48.997826614140536 0 0 0
549 2 205.03699330217947 17.45793243738663 49.24102594065038 0 -1 0
1549 2 205.14221306550348 4.23047304340017 49.24929012745984 0 0 0
550 2 208.78048506570707 2.1047445198249153 49.52007437486595 0 0 0
569 2 212.48738492240358 17.47858673142785 49.76181826797104 0 -1 0
570 2 216.3156727647223 2.142405600304096 49.90110524362334 0 0 0
1569 2 212.5966868596618 4.318752216658066 49.68445554015616 0 0 0
589 2 220.11394061353266 17.488263156324948 49.999764689237225 0 -1 0
1589 2 220.17299226413988 4.332793621843599 49.909312087252694 0 0 0
590 2 223.92769885518467 2.1623973779884516 50.00168918328904 0 0 0
609 2 227.6661908731993 17.48903726370893 50.06292007503423 0 -1 0
1609 2 227.74758238155604 4.357110969819767 49.98788473128976 0 0 0
610 2 231.4283995278473 2.175045388585531 50.07112529505716 0 0 0
629 2 235.15385800019763 17.490659689848464 50.08473397728029 0 -1 0
630 2 238.90935295419484 2.1862073949362553 50.073344864823554 0 0 0
1629 2 235.18520626783243 4.3654311007839075 50.07535077838415 0 0 0
649 2 242.63551016937348 0.0010912051603013668 50.0689464092952 0 0 0
1649 2 242.62169564073488 4.376085109662481 50.07816284534622 0 0 0
650 2 246.33109781768889 2.188775182139493 50.08330022014431 0 0 0
669 2 250.04559771550092 0.0002563500930904563 50.09909491438264 0 0 0
1669 2 250.0420165067591 4.374264840535394 50.10093129654256 0 0 0
670 2 253.78301112347148 2.1868515562954998 50.11490476572593 0 0 0
689 2 257.5441544176074 1.5361071402855424e-05 50.12470122619786 0 0 0
690 2 261.31997700886757 2.186650851787989 50.129311332763876 0 0 0
1689 2 257.543757038807 4.373322639802934 50.124900290032514 0 0 0
709 2 265.10354026755914 1.6312350901159789e-06 50.13081453111679 0 0 0
1709 2 265.10352644507833 4.373256669370905 50.130817804075605 0 0 0
710 2 268.88988075442427 2.186625422385301 50.13120502225768 0 0 0
729 2 272.67700376726674 2.9939555381385805e-08 50.13129182595118 0 0 0
1729 2 272.6770036270805 4.373249991960071 50.13129192635224 0 0 0
730 2 276.46430559156977 2.18662500884908 50.13130981350776 0 0 0
749 2 280.2516440726264 17.492999997334902 50.131313316262435 0 -1 0
1749 2 280.25164407843687 4.373250002823287 50.13131331202685 0 0 0
750 2 284.03898956363463 2.1866249998285703 50.13131399532659 0 0 0
769 2 287.82633657646846 8.142979823751054e-11 50.13131434136347 0 0 0
1769 2 287.8263365761919 4.373249999939473 50.1313143415364 0 0 0
770 2 291.613685108918 2.1866250000058276 50.131315624441974 0 0 0
789 2 295.40103974724116 17.49299999999883 50.131321757244095 0 -1 0
790 2 299.18842236674993 2.1866250000001353 50.13135062535421 0 0 0
1789 2 295.4010397472392 4.373250000001768 50.1313217572441 0 0 0
809 2 302.9759265897145 17.492999999999704 50.13147666635193 0 -1 0
1809 2 302.9759265897142 4.37324999999997 50.1314766663519 0 0 0
810 2 306.76391424267376 2.1866250000003435 50.131983366569244 0 0 0
829 2 310.5535784197349 17.49299999999955 50.13380894032321 0 -1 0
1829 2 310.5535784197345 4.373250000000232 50.13380894032272 0 0 0
830 2 314.34803737737235 2.186625000000299 50.13945062479229 0 0 0
849 2 318.1530598862972 1.383711232008876e-14 50.15337274823461 0 0 0
850 2 321.97584575455863 2.1866250000004483 50.179374451949265 0 0 0
1849 2 318.1530598862972 4.373250000000198 50.15337274823428 0 0 0
869 2 325.8233677706462 1.7763568394002505e-13 50.21648243774235 0 0 0
1869 2 325.823367770647 4.3732499999996834 50.21648243774218 0 0 0
870 2 329.69560740811653 2.186625000000258 50.26287900342928 0 0 0
889 2 333.53306005942034 2.0250467969162855e-13 50.293501757893026 0 0 0
1889 2 333.5330600594205 4.37325000000008 50.293501757892834 0 0 0
890 2 337.23038062238106 2.186625000000245 50.163287743783904 0 0 0
909 2 340.9255963963952 17.492999999999892 49.787244723498254 0 -1 0
910 2 344.69069580548967 2.1866250000006695 49.339288454153206 0 0 0
1909 2 340.9255963963948 4.373249999999714 49.78724472349868 0 0 0
929 2 348.4325243094992 17.492999999999906 49.17963444284314 0 -1 0
1929 2 348.4325243095003 4.373249999999267 49.17963444284344 0 0 0
930 2 352.29560891674015 2.186624999999572 49.128833721994155 0 0 0
949 2 356.9820396896911 7.105427357601002e-15 48.95563244066539 0 0 0
1949 2 356.9820396896927 4.373250000003648 48.95563244066707 0 0 0
950 2 360.3593908916598 2.186625000000175 49.30627965170921 0 0 0
969 2 364.53065802111047 1.0122532162092847e-13 49.47725031459396 0 0 0
970 2 367.9499089831401 2.186624999999727 50.000162068 0 0 0
1969 2 364.5306580211119 4.373250000000158 49.47725031459481 0 0 0
989 2 371.68224291085875 17.49299999999997 50.000162068 0 -1 0
1989 2 371.6822429108588 4.373250000000285 50.000162068 0 0 0
990 2 375.2685633181852 2.18662500000012 50.000162068 0 0 0
1010 2 4.386077152785543 6.5598750000001855 50.000162068 0 0 0
2009 2 0.6541722977036671 8.746500000000065 50.000162068 0 0 0
2010 2 4.386077152785754 10.933125 50.000162068 0 0 0
2029 2 8.034540108384997 8.746500000000061 50.000162068 0 0 0
1030 2 11.43657106855354 6.559875000000004 50.000162068 0 0 0
2030 2 11.436571068553395 10.933125000000206 50.000162068 0 0 0
2049 2 15.158970726830336 8.746500000000285 49.95369492084992 0 0 0
1050 2 19.05291915095978 6.559875000000182 49.21695981782013 0 0 0
2050 2 19.052919150958402 10.93312500000066 49.21695981782039 0 0 0
1070 2 27.425136318465917 6.559875000000062 48.89432505920097 0 0 0
2069 2 23.983300100268757 8.746499999999816 49.14100489190011 0 0 0
2070 2 27.42513631846532 10.933125000000121 48.89432505920108 0 0 0
2089 2 31.168685442378507 8.746499999999932 49.199548782719 0 0 0
1090 2 34.8648807427394 6.559874999999981 49.71136356202386 0 0 0
2090 2 34.864880742739444 10.93312500000021 49.71136356202388 0 0 0
2109 2 38.16996870977279 8.74650000000001 49.99912384478724 0 0 0
1110 2 41.66335344077517 6.5598750000000745 50.13801800359451 0 0 0
2110 2 41.66335344077515 10.93312500000006 50.138018003594645 0 0 0
1130 2 48.74387704114022 6.559874999999898 50.270598616824074 0 0 0
2129 2 45.2296613574401 8.746499999999843 50.18024577570547 0 0 0
2130 2 48.74387704114033 10.933125000000015 50.27059861682421 0 0 0
2149 2 52.596963811852596 8.746499999999925 50.254393938240625 0 0 0
1150 2 56.546950794638335 6.5598749999999475 50.21141250196329 0 0 0
2150 2 56.546950794638406 10.933124999999926 50.21141250196349 0 0 0
2169 2 60.45146256049602 8.746499999999942 50.17928177843427 0 0 0
1170 2 64.3066158310346 6.559874999999945 50.15710655319932 0 0 0
2170 2 64.3066158310346 10.933125000000098 50.1571065531993 0 0 0
1190 2 71.93720221519615 6.559874999999941 50.13541890905584 0 0 0
2189 2 68.13153306291241 8.746500000000069 50.14277648867066 0 0 0
2190 2 71.93720221519634 10.933125000000087 50.13541890905599 0 0 0
2209 2 75.73179553187553 8.746499999999898 50.13252304957397 0 0 0
1210 2 79.52145099009077 6.559874999999934 50.131622662904775 0 0 0
2210 2 79.5214509900905 10.93312500000012 50.1316226629051 0 0 0
2229 2 83.30941539357684 8.746500000000088 50.13138519246967 0 0 0
1230 2 87.09690708231653 6.559875000000063 50.13132917925068 0 0 0
2230 2 87.09690708231669 10.933124999999979 50.13132917925066 0 0 0
2249 2 90.88428478991479 8.746500000000301 50.13131705445752 0 0 0
1250 2 94.6716378378775 6.559875000000113 50.13131462231131 0 0 0
2250 2 94.67163783788433 10.933124999999244 50.13131462231985 0 0 0
2269 2 98.45898595231861 8.746499999953778 50.13131417010445 0 0 0
1270 2 102.24633312609903 6.559875000021157 50.13131407771034 0 0 0
2270 2 102.24633312550415 10.933124999906035 50.13131407710165 0 0 0
1290 2 109.82102642652458 6.559875000599561 50.13131344353106 0 0 0
2289 2 106.0336800392096 8.746500002132613 50.13131397196086 0 0 0
2290 2 109.82102644341646 10.93312500218293 50.13131346064754 0 0 0
2309 2 113.60837042588344 8.746499963547643 50.13131076421676 0 0 0
1310 2 117.39570153430772 6.559874969272967 50.13129695878164 0 0 0
2310 2 117.39570134531213 10.933125216050241 50.13129680455766 0 0 0
2329 2 121.18296331656111 8.746500902708492 50.13122862031825 0 0 0
1330 2 124.96988921942523 6.559873981792563 50.130909923377594 0 0 0
2330 2 124.96989207855755 10.93312208989901 50.13091173302289 0 0 0
1350 2 132.53707961104925 6.559927473245594 50.124815251200495 0 0 0
2349 2 128.75545760037744 8.746479663184529 50.129536786870105 0 0 0
2350 2 132.53702087518786 10.933051857142962 50.124773399223464 0 0 0
2369 2 136.3116561110796 8.746619808595012 50.11378823066222 0 0 0
1370 2 140.0803637740985 6.559780483023438 50.10004814241752 0 0 0
2370 2 140.08047400249367 10.933302662069499 50.10021992973355 0 0 0
2389 2 143.84725506609905 8.745639216004438 50.10338358999429 0 0 0
1390 2 147.60009161577423 6.558752564085062 50.13295246473101 0 0 0
2390 2 147.59817574788096 10.930034856461171 50.131576257052195 0 0 0
1410 2 154.98416375065074 6.552541461517424 50.06979846941811 0 0 0
2409 2 151.31139663643899 8.739741713752972 50.138154652537615 0 0 0
2410 2 154.978898455706 10.915004162701182 50.06285629304026 0 0 0
2429 2 158.6429603491818 8.730510613431175 49.9820937325498 0 0 0
1430 2 162.24390558793849 6.549838663619688 49.85666357233602 0 0 0
2430 2 162.2392417516783 10.904349083559506 49.8520480346707 0 0 0
2449 2 165.7075538707247 8.722165093649973 49.43267185374429 0 0 0
1450 2 169.29798615378948 6.555556406139426 48.91070201164964 0 0 0
2450 2 169.28241460588265 10.90318060296764 48.90248530228997 0 0 0
1470 2 177.11237737264474 6.507359597944688 48.13828938496295 0 0 0
2469 2 173.07373252560106 8.744977513983576 48.48387225965059 0 0 0
2470 2 177.1213358736076 10.982219667934977 48.12382520734288 0 0 0
2489 2 181.2492824978256 8.73860616313566 47.94599133945295 0 0 0
1490 2 185.52205940134576 6.508868024354861 48.15107110935797 0 0 0
2490 2 185.44947806384965 10.945092587074363 48.05717572736038 0 0 0
1510 2 193.6423014393807 6.531305432321098 48.5839031145643 0 0 0
2509 2 189.6110144867804 8.741423948981888 48.252238765976465 0 0 0
2510 2 193.5787346632897 10.935575061249388 48.586926073756445 0 0 0
2529 2 197.69151328216552 8.754342409287842 48.7558161435208 0 0 0
1530 2 201.48553105336913 6.496923203335998 48.92676293236686 0 0 0
2530 2 201.44413609344625 11.027607536326203 48.92218140759331 0 0 0
2549 2 205.27304992931101 8.784463785497591 49.20379065206281 0 0 0
1550 2 208.96898054427382 6.5019345276096345 49.44888184959624 0 0 0
2550 2 208.9212538954154 11.023359748033482 49.45758110512969 0 0 0
1570 2 216.4022539495611 6.537587772462929 49.81820847955766 0 0 0
2569 2 212.66179508693028 8.757985358819063 49.63516633963233 0 0 0
2570 2 216.38921771037738 10.972747532187903 49.825929076601625 0 0 0
2589 2 220.20544704037775 8.759689200861173 49.86063868594549 0 0 0
1590 2 224.00649300560266 6.546717477468244 49.902921020374336 0 0 0
2590 2 223.98269667920675 10.95565319387344 49.93608842152171 0 0 0
2609 2 227.78532243381017 8.751539778984517 49.95234866686137 0 0 0
1610 2 231.49672710976958 6.554233103075782 50.02590399589225 0 0 0
2610 2 231.47192341186945 10.944621046854305 50.04185369076821 0 0 0
1630 2 238.91035179592438 6.559574875283393 50.08081846243613 0 0 0
2629 2 235.1998223993 8.748993450912343 50.071080539064674 0 0 0
2630 2 238.9099017699815 10.933406866949499 50.0784616999731 0 0 0
2649 2 242.61452273624212 8.745762072387738 50.08313743201328 0 0 0
1650 2 246.31914309876538 6.561105092602737 50.08974416638052 0 0 0
2650 2 246.32242355995584 10.93097378656497 50.087928400826556 0 0 0
2669 2 250.03979775801486 8.746259069929486 50.1020667594002 0 0 0
1670 2 253.78199960872962 6.5600153431592565 50.115420158240354 0 0 0
2670 2 253.7822959642946 10.932901234225305 50.11526726148674 0 0 0
1690 2 261.31982916341457 6.559890487826337 50.129377144573674 0 0 0
2689 2 257.54352256097684 8.746478965767853 50.125019950133165 0 0 0
2690 2 261.3198565717434 10.933098920892576 50.1293679640341 0 0 0
2709 2 265.10351608074205 8.746498686477873 50.130820761482454 0 0 0
1710 2 268.88988173703177 6.559875350663405 50.13120390560642 0 0 0
2710 2 268.8898810064068 10.933124554115162 50.131204357612 0 0 0
2729 2 272.6770036151481 8.746500030234937 50.131291933422794 0 0 0
1730 2 276.46430547337593 6.559875003374576 50.13130988749874 0 0 0
2730 2 276.464305563886 10.933124994244592 50.13130982851583 0 0 0
2749 2 280.25164407746473 8.746499997459736 50.13131331251118 0 0 0
1750 2 284.0389895667915 6.559875000000779 50.131313993171496 0 0 0
2750 2 284.0389895634068 10.933125000041986 50.131313995583945 0 0 0
2769 2 287.8263365761358 8.746500000070558 50.131314341561065 0 0 0
1770 2 291.6136851088292 6.559875000000914 50.1313156244997 0 0 0
2770 2 291.61368510889844 10.93312499999756 50.131315624448455 0 0 0
1790 2 299.1884223667495 6.559874999999722 50.13135062535338 0 0 0
2789 2 295.4010397472356 8.746499999998907 50.131321757246326 0 0 0
2790 2 299.1884223667499 10.933125000000144 50.131350625354145 0 0 0
2809 2 302.97592658971485 8.746499999999896 50.13147666635181 0 0 0
1810 2 306.76391424267365 6.559875000000161 50.13198336656914 0 0 0
2810 2 306.76391424267314 10.933124999999531 50.13198336656974 0 0 0
2829 2 310.5535784197348 8.746499999999969 50.133808940322645 0 0 0
1830 2 314.3480373773734 6.559874999999654 50.13945062479163 0 0 0
2830 2 314.348037377373 10.933125000000162 50.13945062479151 0 0 0
1850 2 321.9758457545585 6.559874999999823 50.17937445194926 0 0 0
2849 2 318.15305988629785 8.746500000000161 50.15337274823419 0 0 0
2850 2 321.9758457545595 10.933125000000164 50.17937445194939 0 0 0
2869 2 325.8233677706469 8.746500000000307 50.21648243774177 0 0 0
1870 2 329.6956074081164 6.559874999999938 50.262879003429326 0 0 0
2870 2 329.69560740811636 10.933124999999936 50.262879003429084 0 0 0
2889 2 333.5330600594206 8.746500000000013 50.29350175789299 0 0 0
1890 2 337.23038062238123 6.5598750000003765 50.16328774378361 0 0 0
2890 2 337.23038062238095 10.93312499999977 50.16328774378388 0 0 0
1910 2 344.69069580548995 6.559874999999432 49.33928845415322 0 0 0
2909 2 340.92559639639546 8.746500000000168 49.78724472349838 0 0 0
2910 2 344.69069580548916 10.933124999999457 49.339288454153134 0 0 0
2929 2 348.4325243094999 8.746500000001065 49.179634442843486 0 0 0
1930 2 352.29560891673725 6.5598750000002015 49.12883372199576 0 0 0
2930 2 352.2956089167324 10.933125000000347 49.12883372199547 0 0 0
2949 2 356.98203968969136 8.746499999998436 48.95563244067384 0 0 0
1950 2 360.3593908916627 6.559874999998968 49.30627965170676 0 0 0
2950 2 360.3593908916612 10.933125000001686 49.30627965170651 0 0 0
1970 2 367.94990898313677 6.559875000001529 50.000162068 0 0 0
2969 2 364.53065802110615 8.746500000000273 49.47725031459682 0 0 0
2970 2 367.94990898313813 10.933124999998377 50.000162068 0 0 0
2989 2 371.6822429108583 8.746499999999898 50.000162068 0 0 0
1990 2 375.26856331818385 6.559874999999803 50.000162068 0 0 0
2990 2 375.2685633181849 10.933124999999983 50.000162068 0 0 0
3009 2 0.654172297703278 13.119749999999854 50.000162068 0 0 0
3010 2 4.386077152785613 15.306375000000132 50.000162068 0 0 0
3029 2 8.034540108384816 13.119750000000144 50.000162068 0 0 0
3030 2 11.436571068553372 15.30637500000026 50.000162068 0 0 0
3049 2 15.158970726830537 13.119749999999748 49.95369492085007 0 0 0
3050 2 19.052919150958857 15.306374999999917 49.21695981782052 0 0 0
3069 2 23.98330010026806 13.119750000000503 49.14100489190079 0 0 0
3070 2 27.425136318465785 15.306374999999777 48.89432505920127 0 0 0
3089 2 31.16868544237795 13.119749999999717 49.19954878271938 0 0 0
3090 2 34.864880742740205 15.306375000000081 49.711363562023834 0 0 0
3109 2 38.169968709772725 13.11975000000011 49.99912384478709 0 0 0
3110 2 41.663353440775055 15.306375000000084 50.13801800359482 0 0 0
3129 2 45.229661357439866 13.119749999999952 50.180245775705686 0 0 0
3130 2 48.743877041140244 15.306375000000001 50.27059861682441 0 0 0
3149 2 52.596963811852646 13.119750000000032 50.25439393824066 0 0 0
3150 2 56.546950794638356 15.306375000000038 50.2114125019633 0 0 0
3169 2 60.45146256049618 13.119749999999971 50.179281778434216 0 0 0
3170 2 64.30661583103453 15.306375000000036 50.15710655319921 0 0 0
3189 2 68.13153306291238 13.119750000000007 50.14277648867093 0 0 0
3190 2 71.9372022151961 15.306374999999948 50.13541890905621 0 0 0
3209 2 75.73179553187575 13.119749999999788 50.13252304957418 0 0 0
3210 2 79.52145099009083 15.30637500000008 50.13162266290521 0 0 0
3229 2 83.30941539357713 13.119749999999835 50.1313851924697 0 0 0
3230 2 87.09690708231662 15.306375000000024 50.13132917925096 0 0 0
3249 2 90.88428478991527 13.119749999999534 50.13131705445773 0 0 0
3250 2 94.6716378378786 15.306374999999619 50.131314622312374 0 0 0
3269 2 98.4589859523176 13.11975000002839 50.13131417010524 0 0 0
3270 2 102.24633312593332 15.306374999981964 50.13131407759127 0 0 0
3289 2 106.03368003846397 13.11974999805737 50.13131397153302 0 0 0
3290 2 109.82102642331581 15.306374999833304 50.13131344201655 0 0 0
3309 2 113.60837040650433 13.119750051839397 50.13131074779234 0 0 0
3310 2 117.39570155487255 15.306375011803427 50.131296971582906 0 0 0
3329 2 121.18296481880857 13.119750667156516 50.131229830859596 0 0 0
3330 2 124.96989898420122 15.306376194769546 50.13091764052992 0 0 0
3349 2 128.75545270859058 13.119720059173677 50.12953289774909 0 0 0
3350 2 132.5369246060792 15.306322865067765 50.124684535133454 0 0 0
3369 2 136.31141884799507 13.119719296592663 50.11357873221875 0 0 0
3370 2 140.08023955905878 15.30633604867472 50.099919775130424 0 0 0
3389 2 143.84683887731197 13.119311330635014 50.10278218884804 0 0 0
3390 2 147.5977046202335 15.30399186982853 50.13115706866841 0 0 0
3409 2 151.30696325188208 13.110734284207807 50.13711520323605 0 0 0
3410 2 154.9722658627554 15.292444797772099 50.062750496808704 0 0 0
3429 2 158.63537908046126 13.090741431629603 49.977193862996614 0 0 0
3430 2 162.23312963630383 15.282628890353037 49.853878119391865 0 0 0
3449 2 165.6955922142743 13.091332314596913 49.43474602857463 0 0 0
3450 2 169.23352946889685 15.274108061154033 48.909733391136506 0 0 0
3469 2 173.03034345856483 13.134606662168775 48.45648914911512 0 0 0
3470 2 177.07441577358117 15.30578536460085 48.102525775343246 0 0 0
3489 2 181.15837365205337 13.153466113877213 47.81434524017609 0 0 0
3490 2 185.24640779017827 15.278233550835523 47.8079344499878 0 0 0
3509 2 189.4693297802099 13.185912114638525 48.08723935290369 0 0 0
3510 2 193.397671765903 15.3143259358611 48.509710795543945 0 0 0
3529 2 197.35901878533454 13.14578030619482 48.870938709837816 0 0 0
3530 2 201.12929278827838 15.365162628225876 48.99621395917942 0 0 0
3549 2 205.064794893518 13.251010227478679 49.2521697880522 0 0 0
3550 2 208.7314264820233 15.354601787436952 49.544187334991214 0 0 0
3569 2 212.5409938693945 13.177498676678152 49.7137188558599 0 0 0
3570 2 216.2979982051609 15.33338190190701 49.92431718036875 0 0 0
3589 2 220.15919104336456 13.152458124702989 49.94123293395991 0 0 0
3590 2 223.91369962953613 15.321587439588237 50.01874829448738 0 0 0
3609 2 227.70976470982822 13.13502105972566 50.02148431561316 0 0 0
3610 2 231.40962670674375 15.312144281609095 50.081231306419475 0 0 0
3629 2 235.17114174953102 13.127415976962414 50.07901780293814 0 0 0
3630 2 238.91147700210763 15.306799493192054 50.07069411333254 0 0 0
3649 2 242.6282422659509 13.116555247980415 50.074029421827554 0 0 0
3650 2 246.33399306109555 15.305144405974936 50.0818780838097 0 0 0
3669 2 250.04333755585427 13.118719867525364 50.10024993786654 0 0 0
3670 2 253.7831877149964 15.306231911352658 50.11481338855325 0 0 0
3689 2 257.543930050651 13.119683032914814 50.124813549554965 0 0 0
3690 2 261.3200234843723 15.30635973923318 50.129287510539264 0 0 0
3709 2 265.1035300304931 13.11974301291521 50.13081752830083 0 0 0
3710 2 268.88988084245324 15.306374672836684 50.13120512781034 0 0 0
3729 2 272.6770036698577 13.119749947865094 50.13129188710622 0 0 0
3730 2 276.46430551378796 15.306374993531847 50.1313098658013 0 0 0
3749 2 280.2516440768826 13.119750002382126 50.131313313086 0 0 0
3750 2 284.03898956733093 15.306375000128583 50.13131399263647 0 0 0
3769 2 287.8263365762721 13.119749999908612 50.13131434149217 0 0 0
3770 2 291.6136851088565 15.30637499999616 50.13131562449073 0 0 0
3789 2 295.4010397472407 13.11975000000031 50.131321757244116 0 0 0
3790 2 299.18842236675016 15.306375000000246 50.13135062535352 0 0 0
3809 2 302.9759265897143 13.119750000000105 50.13147666635195 0 0 0
3810 2 306.7639142426741 15.306374999999804 50.131983366569095 0 0 0
3829 2 310.55357841973466 13.119750000000098 50.13380894032297 0 0 0
3830 2 314.3480373773733 15.306375000000283 50.13945062479224 0 0 0
3849 2 318.15305988629774 13.119749999999366 50.153372748234545 0 0 0
3850 2 321.97584575455903 15.306374999999766 50.17937445194948 0 0 0
3869 2 325.82336777064694 13.119749999999888 50.21648243774217 0 0 0
3870 2 329.69560740811613 15.306374999999855 50.262879003429305 0 0 0
3889 2 333.53306005942073 13.119750000000058 50.29350175789274 0 0 0
3890 2 337.2303806223811 15.30637499999957 50.16328774378358 0 0 0
3909 2 340.92559639639575 13.119749999999836 49.78724472349835 0 0 0
3910 2 344.69069580548904 15.306375000000706 49.33928845415298 0 0 0
3929 2 348.4325243094986 13.119750000000117 49.1796344428437 0 0 0
3930 2 352.2956089167294 15.306374999999473 49.128833721996166 0 0 0
3949 2 356.98203968969216 13.119749999998543 48.95563244066668 0 0 0
3950 2 360.359390891661 15.306374999999086 49.30627965170973 0 0 0
3969 2 364.5306580211117 13.119749999999101 49.47725031459491 0 0 0
3970 2 367.94990898314 15.30637500000003 50.000162068 0 0 0
3989 2 371.68224291085903 13.119749999999948 50.000162068 0 0 0
3990 2 375.2685633181849 15.306374999999962 50.000162068 0 0 0
1 1 1.6930141777211167 2.186624999999819 51.740647988 0 0 0
2 1 5.338957365245118 17.49299999999986 51.740647988 0 -1 0
3 1 0.4142406849870047 2.4868995751603507e-14 55.791981768 0 0 0
4 1 4.04057894751414 2.1866250000001535 55.791981768 0 0 0
13 2 2.89698780831331 8.877981054208353e-15 53.76690288 0 0 0
1002 1 5.338957365244981 4.3732499999999765 51.740647988 0 0 0
1003 1 0.41424068498703726 4.373249999999876 55.791981768 0 0 0
1013 2 2.896987808312923 4.373250000000103 53.76690288 0 0 0
14 2 6.7322274033370615 2.1866249999998106 53.76690288 0 0 0
21 1 9.148714382027933 2.186625000000039 51.740647988 0 0 0
23 1 8.121202618149281 17.49299999999996 55.791981768 0 -1 0
33 2 10.279147965200467 6.039613253960852e-14 53.76690288 0 0 0
1023 1 8.12120261814901 4.373250000000081 55.791981768 0 0 0
1033 2 10.279147965200561 4.373250000000109 53.76690288 0 0 0
22 1 12.537482428278762 17.49299999999979 51.740647988 0 -1 0
24 1 11.925983503479449 2.1866249999999012 55.791981768 0 0 0
34 2 14.491196166205649 2.186625000000204 53.960511444706746 0 0 0
41 1 16.807105356965717 2.186625000000332 51.79975526180434 0 0 0
43 1 15.962512321392893 17.49299999999998 55.74890536752514 0 -1 0
1022 1 12.537482428278775 4.373249999999743 51.740647988 0 0 0
1043 1 15.962512321392447 4.373250000000019 55.74890536752604 0 0 0
42 1 20.774274982457815 1.8230462914814773e-13 50.59822096760456 0 0 0
44 1 19.673933321285794 2.1866249999998044 55.01005871046096 0 0 0
53 2 18.697472537570683 17.49299999999985 53.10859765689821 0 -1 0
54 2 21.893857730605752 2.1866249999998972 52.9878956723566 0 0 0
1042 1 20.774274982457623 4.373250000000175 50.59822096760495 0 0 0
1053 2 18.697472537570395 4.373250000000009 53.10859765689865 0 0 0
61 1 24.935001717613684 2.186625000000012 50.645605717420274 0 0 0
62 1 28.71657360880646 17.49299999999995 51.21047733055819 0 -1 0
63 1 22.967027918702545 17.492999999999935 55.10030641987781 0 -1 0
64 1 26.089783761369794 2.186624999999811 55.82571632726646 0 0 0
73 2 25.893810726389557 2.7355895326763857e-13 53.20043153410526 0 0 0
1062 1 28.71657360880577 4.373250000000212 51.21047733055866 0 0 0
1063 1 22.967027918703874 4.373250000000027 55.10030641987668 0 0 0
1073 2 25.89381072638896 4.373249999999949 53.20043153410579 0 0 0
74 2 29.439112819040695 2.1866250000000704 53.516084767906605 0 0 0
81 1 32.34363210322938 2.1866250000002094 51.450798861752915 0 0 0
83 1 30.058424109702926 1.2805983585671056e-13 55.600285539516655 0 0 0
93 2 32.989326337033916 17.492999999999956 53.72606093031533 0 -1 0
1083 1 30.05842410970316 4.373250000000052 55.600285539516776 0 0 0
1093 2 32.98932633703403 4.373249999999969 53.72606093031522 0 0 0