# LAMMPS data file written by OVITO Basic 3.11.0

3000 atoms
2 atom types

0.0 43.7325 xlo xhi
0.0 37.873455971 ylo yhi
0.0 60.4004 zlo zhi
-21.86625 0.0 0.0 xy xz yz

Masses

1 208.98038  # Bi
2 127.6  # Te

Atoms  # atomic

1 1 -2.186625e-04 2.5250233096 2.025829416
2 1 -2.186625e-04 2.5250233096 8.041105252
3 1 0.0 0.0 12.09216008
4 1 0.0 0.0 18.10803992
5 1 2.1868436625 1.2623222875 22.159094748
6 1 2.1868436625 1.2623222875 28.174370584
7 2 2.1868436625 1.2623222875 3.766568944
8 2 0.0 0.0 0.0
9 2 0.0 0.0 6.29976172
10 2 -2.186625e-04 2.5250233096 13.833503612
11 2 2.1868436625 1.2623222875 10.066934668
12 2 2.1868436625 1.2623222875 16.366696388
13 2 0.0 0.0 23.90043828
14 2 -2.186625e-04 2.5250233096 20.133265332
15 2 -2.186625e-04 2.5250233096 26.433631056
16 1 4.3730313375 2.5250233096 2.025829416
17 1 4.3730313375 2.5250233096 8.041105252
18 1 4.37325 0.0 12.09216008
19 1 4.37325 0.0 18.10803992
20 1 6.5600936625 1.2623222875 22.159094748
21 1 6.5600936625 1.2623222875 28.174370584
22 2 6.5600936625 1.2623222875 3.766568944
23 2 4.37325 0.0 0.0
24 2 4.37325 0.0 6.29976172
25 2 4.3730313375 2.5250233096 13.833503612
26 2 6.5600936625 1.2623222875 10.066934668
27 2 6.5600936625 1.2623222875 16.366696388
28 2 4.37325 0.0 23.90043828
29 2 4.3730313375 2.5250233096 20.133265332
30 2 4.3730313375 2.5250233096 26.433631056
31 1 8.7462813375 2.5250233096 2.025829416
32 1 8.7462813375 2.5250233096 8.041105252
33 1 8.7465 0.0 12.09216008
34 1 8.7465 0.0 18.10803992
35 1 10.9333436625 1.2623222875 22.159094748
36 1 10.9333436625 1.2623222875 28.174370584
37 2 10.9333436625 1.2623222875 3.766568944
38 2 8.7465 0.0 0.0
39 2 8.7465 0.0 6.29976172
40 2 8.7462813375 2.5250233096 13.833503612
41 2 10.9333436625 1.2623222875 10.066934668
42 2 10.9333436625 1.2623222875 16.366696388
43 2 8.7465 0.0 23.90043828
44 2 8.7462813375 2.5250233096 20.133265332
45 2 8.7462813375 2.5250233096 26.433631056
46 1 13.1195313375 2.5250233096 2.025829416
47 1 13.1195313375 2.5250233096 8.041105252
48 1 13.11975 0.0 12.09216008
49 1 13.11975 0.0 18.10803992
50 1 15.3065936625 1.2623222875 22.159094748
51 1 15.3065936625 1.2623222875 28.174370584
52 2 15.3065936625 1.2623222875 3.766568944
53 2 13.11975 0.0 0.0
54 2 13.11975 0.0 6.29976172
55 2 13.1195313375 2.5250233096 13.833503612
56 2 15.3065936625 1.2623222875 10.066934668
57 2 15.3065936625 1.2623222875 16.366696388
58 2 13.11975 0.0 23.90043828
59 2 13.1195313375 2.5250233096 20.133265332
60 2 13.1195313375 2.5250233096 26.433631056
61 1 17.4927813375 2.5250233096 2.025829416
62 1 17.4927813375 2.5250233096 8.041105252
63 1 17.493 0.0 12.09216008
64 1 17.493 0.0 18.10803992
65 1 19.6798436625 1.2623222875 22.159094748
66 1 19.6798436625 1.2623222875 28.174370584
67 2 19.6798436625 1.2623222875 3.766568944
68 2 17.493 0.0 0.0
69 2 17.493 0.0 6.29976172
70 2 17.4927813375 2.5250233096 13.833503612
71 2 19.6798436625 1.2623222875 10.066934668
72 2 19.6798436625 1.2623222875 16.366696388
73 2 17.493 0.0 23.90043828
74 2 17.4927813375 2.5250233096 20.133265332
75 2 17.4927813375 2.5250233096 26.433631056
76 1 -2.1868436625 6.3123689067 2.025829416
77 1 -2.1868436625 6.3123689067 8.041105252
78 1 -2.186625 3.7873455971 12.09216008
79 1 -2.186625 3.7873455971 18.10803992
80 1 2.186625e-04 5.0496678846 22.159094748
81 1 2.186625e-04 5.0496678846 28.174370584
82 2 2.186625e-04 5.0496678846 3.766568944
83 2 -2.186625 3.7873455971 0.0
84 2 -2.186625 3.7873455971 6.29976172
85 2 -2.1868436625 6.3123689067 13.833503612
86 2 2.186625e-04 5.0496678846 10.066934668
87 2 2.186625e-04 5.0496678846 16.366696388
88 2 -2.186625 3.7873455971 23.90043828
89 2 -2.1868436625 6.3123689067 20.133265332
90 2 -2.1868436625 6.3123689067 26.433631056
91 1 2.1864063375 6.3123689067 2.025829416
92 1 2.1864063375 6.3123689067 8.041105252
93 1 2.186625 3.7873455971 12.09216008
94 1 2.186625 3.7873455971 18.10803992
95 1 4.3734686625 5.0496678846 22.159094748
96 1 4.3734686625 5.0496678846 28.174370584
97 2 4.3734686625 5.0496678846 3.766568944
98 2 2.186625 3.7873455971 0.0
99 2 2.186625 3.7873455971 6.29976172
100 2 2.1864063375 6.3123689067 13.833503612
101 2 4.3734686625 5.0496678846 10.066934668
102 2 4.3734686625 5.0496678846 16.366696388
103 2 2.186625 3.7873455971 23.90043828
104 2 2.1864063375 6.3123689067 20.133265332
105 2 2.1864063375 6.3123689067 26.433631056
106 1 6.5596563375 6.3123689067 2.025829416
107 1 6.5596563375 6.3123689067 8.041105252
108 1 6.559875 3.7873455971 12.09216008
109 1 6.559875 3.7873455971 18.10803992
110 1 8.7467186625 5.0496678846 22.159094748
111 1 8.7467186625 5.0496678846 28.174370584
112 2 8.7467186625 5.0496678846 3.766568944
113 2 6.559875 3.7873455971 0.0
114 2 6.559875 3.7873455971 6.29976172
115 2 6.5596563375 6.3123689067 13.833503612
116 2 8.7467186625 5.0496678846 10.066934668
117 2 8.7467186625 5.0496678846 16.366696388
118 2 6.559875 3.7873455971 23.90043828
119 2 6.5596563375 6.3123689067 20.133265332
120 2 6.5596563375 6.3123689067 26.433631056
121 1 10.9329063375 6.3123689067 2.025829416
122 1 10.9329063375 6.3123689067 8.041105252
123 1 10.933125 3.7873455971 12.09216008
124 1 10.933125 3.7873455971 18.10803992
125 1 13.1199686625 5.0496678846 22.159094748
126 1 13.1199686625 5.0496678846 28.174370584
127 2 13.1199686625 5.0496678846 3.766568944
128 2 10.933125 3.7873455971 0.0
129 2 10.933125 3.7873455971 6.29976172
130 2 10.9329063375 6.3123689067 13.833503612
131 2 13.1199686625 5.0496678846 10.066934668
132 2 13.1199686625 5.0496678846 16.366696388
133 2 10.933125 3.7873455971 23.90043828
134 2 10.9329063375 6.3123689067 20.133265332
135 2 10.9329063375 6.3123689067 26.433631056
136 1 15.3061563375 6.3123689067 2.025829416
137 1 15.3061563375 6.3123689067 8.041105252
138 1 15.306375 3.7873455971 12.09216008
139 1 15.306375 3.7873455971 18.10803992
140 1 17.4932186625 5.0496678846 22.159094748
141 1 17.4932186625 5.0496678846 28.174370584
142 2 17.4932186625 5.0496678846 3.766568944
143 2 15.306375 3.7873455971 0.0
144 2 15.306375 3.7873455971 6.29976172
145 2 15.3061563375 6.3123689067 13.833503612
146 2 17.4932186625 5.0496678846 10.066934668
147 2 17.4932186625 5.0496678846 16.366696388
148 2 15.306375 3.7873455971 23.90043828
149 2 15.3061563375 6.3123689067 20.133265332
150 2 15.3061563375 6.3123689067 26.433631056
151 1 -4.3734686625 10.0997145038 2.025829416
152 1 -4.3734686625 10.0997145038 8.041105252
153 1 -4.37325 7.5746911942 12.09216008
154 1 -4.37325 7.5746911942 18.10803992
155 1 -2.1864063375 8.8370134817 22.159094748
156 1 -2.1864063375 8.8370134817 28.174370584
157 2 -2.1864063375 8.8370134817 3.766568944
158 2 -4.37325 7.5746911942 0.0
159 2 -4.37325 7.5746911942 6.29976172
160 2 -4.3734686625 10.0997145038 13.833503612
161 2 -2.1864063375 8.8370134817 10.066934668
162 2 -2.1864063375 8.8370134817 16.366696388
163 2 -4.37325 7.5746911942 23.90043828
164 2 -4.3734686625 10.0997145038 20.133265332
165 2 -4.3734686625 10.0997145038 26.433631056
166 1 -2.186625e-04 10.0997145038 2.025829416
167 1 -2.186625e-04 10.0997145038 8.041105252
168 1 2.6645352591e-15 7.5746911942 12.09216008
169 1 2.6645352591e-15 7.5746911942 18.10803992
170 1 2.1868436625 8.8370134817 22.159094748
171 1 2.1868436625 8.8370134817 28.174370584
172 2 2.1868436625 8.8370134817 3.766568944
173 2 2.6645352591e-15 7.5746911942 0.0
174 2 2.6645352591e-15 7.5746911942 6.29976172
175 2 -2.186625e-04 10.0997145038 13.833503612
176 2 2.1868436625 8.8370134817 10.066934668
177 2 2.1868436625 8.8370134817 16.366696388
178 2 2.6645352591e-15 7.5746911942 23.90043828
179 2 -2.186625e-04 10.0997145038 20.133265332
180 2 -2.186625e-04 10.0997145038 26.433631056
181 1 4.3730313375 10.0997145038 2.025829416
182 1 4.3730313375 10.0997145038 8.041105252
183 1 4.37325 7.5746911942 12.09216008
184 1 4.37325 7.5746911942 18.10803992
185 1 6.5600936625 8.8370134817 22.159094748
186 1 6.5600936625 8.8370134817 28.174370584
187 2 6.5600936625 8.8370134817 3.766568944
188 2 4.37325 7.5746911942 0.0
189 2 4.37325 7.5746911942 6.29976172
190 2 4.3730313375 10.0997145038 13.833503612
191 2 6.5600936625 8.8370134817 10.066934668
192 2 6.5600936625 8.8370134817 16.366696388
193 2 4.37325 7.5746911942 23.90043828
194 2 4.3730313375 10.0997145038 20.133265332
195 2 4.3730313375 10.0997145038 26.433631056
196 1 8.7462813375 10.0997145038 2.025829416
197 1 8.7462813375 10.0997145038 8.041105252
198 1 8.7465 7.5746911942 12.09216008
199 1 8.7465 7.5746911942 18.10803992
200 1 10.9333436625 8.8370134817 22.159094748
201 1 10.9333436625 8.8370134817 28.174370584
202 2 10.9333436625 8.8370134817 3.766568944
203 2 8.7465 7.5746911942 0.0
204 2 8.7465 7.5746911942 6.29976172
205 2 8.7462813375 10.0997145038 13.833503612
206 2 10.9333436625 8.8370134817 10.066934668
207 2 10.9333436625 8.8370134817 16.366696388
208 2 8.7465 7.5746911942 23.90043828
209 2 8.7462813375 10.0997145038 20.133265332
210 2 8.7462813375 10.0997145038 26.433631056
211 1 13.1195313375 10.0997145038 2.025829416
212 1 13.1195313375 10.0997145038 8.041105252
213 1 13.11975 7.5746911942 12.09216008
214 1 13.11975 7.5746911942 18.10803992
215 1 15.3065936625 8.8370134817 22.159094748
216 1 15.3065936625 8.8370134817 28.174370584
217 2 15.3065936625 8.8370134817 3.766568944
218 2 13.11975 7.5746911942 0.0
219 2 13.11975 7.5746911942 6.29976172
220 2 13.1195313375 10.0997145038 13.833503612
221 2 15.3065936625 8.8370134817 10.066934668
222 2 15.3065936625 8.8370134817 16.366696388
223 2 13.11975 7.5746911942 23.90043828
224 2 13.1195313375 10.0997145038 20.133265332
225 2 13.1195313375 10.0997145038 26.433631056
226 1 -6.5600936625 13.8870601009 2.025829416
227 1 -6.5600936625 13.8870601009 8.041105252
228 1 -6.559875 11.3620367913 12.09216008
229 1 -6.559875 11.3620367913 18.10803992
230 1 -4.3730313375 12.6243590788 22.159094748
231 1 -4.3730313375 12.6243590788 28.174370584
232 2 -4.3730313375 12.6243590788 3.766568944
233 2 -6.559875 11.3620367913 0.0
234 2 -6.559875 11.3620367913 6.29976172
235 2 -6.5600936625 13.8870601009 13.833503612
236 2 -4.3730313375 12.6243590788 10.066934668
237 2 -4.3730313375 12.6243590788 16.366696388
238 2 -6.559875 11.3620367913 23.90043828
239 2 -6.5600936625 13.8870601009 20.133265332
240 2 -6.5600936625 13.8870601009 26.433631056
241 1 -2.1868436625 13.8870601009 2.025829416
242 1 -2.1868436625 13.8870601009 8.041105252
243 1 -2.186625 11.3620367913 12.09216008
244 1 -2.186625 11.3620367913 18.10803992
245 1 2.186625e-04 12.6243590788 22.159094748
246 1 2.186625e-04 12.6243590788 28.174370584
247 2 2.186625e-04 12.6243590788 3.766568944
248 2 -2.186625 11.3620367913 0.0
249 2 -2.186625 11.3620367913 6.29976172
250 2 -2.1868436625 13.8870601009 13.833503612
251 2 2.186625e-04 12.6243590788 10.066934668
252 2 2.186625e-04 12.6243590788 16.366696388
253 2 -2.186625 11.3620367913 23.90043828
254 2 -2.1868436625 13.8870601009 20.133265332
255 2 -2.1868436625 13.8870601009 26.433631056
256 1 2.1864063375 13.8870601009 2.025829416
257 1 2.1864063375 13.8870601009 8.041105252
258 1 2.186625 11.3620367913 12.09216008
259 1 2.186625 11.3620367913 18.10803992
260 1 4.3734686625 12.6243590788 22.159094748
261 1 4.3734686625 12.6243590788 28.174370584
262 2 4.3734686625 12.6243590788 3.766568944
263 2 2.186625 11.3620367913 0.0
264 2 2.186625 11.3620367913 6.29976172
265 2 2.1864063375 13.8870601009 13.833503612
266 2 4.3734686625 12.6243590788 10.066934668
267 2 4.3734686625 12.6243590788 16.366696388
268 2 2.186625 11.3620367913 23.90043828
269 2 2.1864063375 13.8870601009 20.133265332
270 2 2.1864063375 13.8870601009 26.433631056
271 1 6.5596563375 13.8870601009 2.025829416
272 1 6.5596563375 13.8870601009 8.041105252
273 1 6.559875 11.3620367913 12.09216008
274 1 6.559875 11.3620367913 18.10803992
275 1 8.7467186625 12.6243590788 22.159094748
276 1 8.7467186625 12.6243590788 28.174370584
277 2 8.7467186625 12.6243590788 3.766568944
278 2 6.559875 11.3620367913 0.0
279 2 6.559875 11.3620367913 6.29976172
280 2 6.5596563375 13.8870601009 13.833503612
281 2 8.7467186625 12.6243590788 10.066934668
282 2 8.7467186625 12.6243590788 16.366696388
283 2 6.559875 11.3620367913 23.90043828
284 2 6.5596563375 13.8870601009 20.133265332
285 2 6.5596563375 13.8870601009 26.433631056
286 1 10.9329063375 13.8870601009 2.025829416
287 1 10.9329063375 13.8870601009 8.041105252
288 1 10.933125 11.3620367913 12.09216008
289 1 10.933125 11.3620367913 18.10803992
290 1 13.1199686625 12.6243590788 22.159094748
291 1 13.1199686625 12.6243590788 28.174370584
292 2 13.1199686625 12.6243590788 3.766568944
293 2 10.933125 11.3620367913 0.0
294 2 10.933125 11.3620367913 6.29976172
295 2 10.9329063375 13.8870601009 13.833503612
296 2 13.1199686625 12.6243590788 10.066934668
297 2 13.1199686625 12.6243590788 16.366696388
298 2 10.933125 11.3620367913 23.90043828
299 2 10.9329063375 13.8870601009 20.133265332
300 2 10.9329063375 13.8870601009 26.433631056
301 1 -8.7467186625 17.674405698 2.025829416
302 1 -8.7467186625 17.674405698 8.041105252
303 1 -8.7465 15.1493823884 12.09216008
304 1 -8.7465 15.1493823884 18.10803992
305 1 -6.5596563375 16.4117046759 22.159094748
306 1 -6.5596563375 16.4117046759 28.174370584
307 2 -6.5596563375 16.4117046759 3.766568944
308 2 -8.7465 15.1493823884 0.0
309 2 -8.7465 15.1493823884 6.29976172
310 2 -8.7467186625 17.674405698 13.833503612
311 2 -6.5596563375 16.4117046759 10.066934668
312 2 -6.5596563375 16.4117046759 16.366696388
313 2 -8.7465 15.1493823884 23.90043828
314 2 -8.7467186625 17.674405698 20.133265332
315 2 -8.7467186625 17.674405698 26.433631056
316 1 -4.3734686625 17.674405698 2.025829416
317 1 -4.3734686625 17.674405698 8.041105252
318 1 -4.37325 15.1493823884 12.09216008
319 1 -4.37325 15.1493823884 18.10803992
320 1 -2.1864063375 16.4117046759 22.159094748
321 1 -2.1864063375 16.4117046759 28.174370584
322 2 -2.1864063375 16.4117046759 3.766568944
323 2 -4.37325 15.1493823884 0.0
324 2 -4.37325 15.1493823884 6.29976172
325 2 -4.3734686625 17.674405698 13.833503612
326 2 -2.1864063375 16.4117046759 10.066934668
327 2 -2.1864063375 16.4117046759 16.366696388
328 2 -4.37325 15.1493823884 23.90043828
329 2 -4.3734686625 17.674405698 20.133265332
330 2 -4.3734686625 17.674405698 26.433631056
331 1 -2.1866249999e-04 17.674405698 2.025829416
332 1 -2.1866249999e-04 17.674405698 8.041105252
333 1 5.3290705182e-15 15.1493823884 12.09216008
334 1 5.3290705182e-15 15.1493823884 18.10803992
335 1 2.1868436625 16.4117046759 22.159094748
336 1 2.1868436625 16.4117046759 28.174370584
337 2 2.1868436625 16.4117046759 3.766568944
338 2 5.3290705182e-15 15.1493823884 0.0
339 2 5.3290705182e-15 15.1493823884 6.29976172
340 2 -2.1866249999e-04 17.674405698 13.833503612
341 2 2.1868436625 16.4117046759 10.066934668
342 2 2.1868436625 16.4117046759 16.366696388
343 2 5.3290705182e-15 15.1493823884 23.90043828
344 2 -2.1866249999e-04 17.674405698 20.133265332
345 2 -2.1866249999e-04 17.674405698 26.433631056
346 1 4.3730313375 17.674405698 2.025829416
347 1 4.3730313375 17.674405698 8.041105252
348 1 4.37325 15.1493823884 12.09216008
349 1 4.37325 15.1493823884 18.10803992
350 1 6.5600936625 16.4117046759 22.159094748
351 1 6.5600936625 16.4117046759 28.174370584
352 2 6.5600936625 16.4117046759 3.766568944
353 2 4.37325 15.1493823884 0.0
354 2 4.37325 15.1493823884 6.29976172
355 2 4.3730313375 17.674405698 13.833503612
356 2 6.5600936625 16.4117046759 10.066934668
357 2 6.5600936625 16.4117046759 16.366696388
358 2 4.37325 15.1493823884 23.90043828
359 2 4.3730313375 17.674405698 20.133265332
360 2 4.3730313375 17.674405698 26.433631056
361 1 8.7462813375 17.674405698 2.025829416
362 1 8.7462813375 17.674405698 8.041105252
363 1 8.7465 15.1493823884 12.09216008
364 1 8.7465 15.1493823884 18.10803992
365 1 10.9333436625 16.4117046759 22.159094748
366 1 10.9333436625 16.4117046759 28.174370584
367 2 10.9333436625 16.4117046759 3.766568944
368 2 8.7465 15.1493823884 0.0
369 2 8.7465 15.1493823884 6.29976172
370 2 8.7462813375 17.674405698 13.833503612
371 2 10.9333436625 16.4117046759 10.066934668
372 2 10.9333436625 16.4117046759 16.366696388
373 2 8.7465 15.1493823884 23.90043828
374 2 8.7462813375 17.674405698 20.133265332
375 2 8.7462813375 17.674405698 26.433631056
376 1 -2.186625e-04 2.5250233096 32.226029416
377 1 -2.186625e-04 2.5250233096 38.241305252
378 1 0.0 0.0 42.29236008
379 1 0.0 0.0 48.30823992
380 1 2.1868436625 1.2623222875 52.359294748
381 1 2.1868436625 1.2623222875 58.374570584
382 2 2.1868436625 1.2623222875 33.966768944
383 2 0.0 0.0 30.2002
384 2 0.0 0.0 36.49996172
385 2 -2.186625e-04 2.5250233096 44.033703612
386 2 2.1868436625 1.2623222875 40.267134668
387 2 2.1868436625 1.2623222875 46.566896388
388 2 0.0 0.0 54.10063828
389 2 -2.186625e-04 2.5250233096 50.333465332
390 2 -2.186625e-04 2.5250233096 56.633831056
391 1 4.3730313375 2.5250233096 32.226029416
392 1 4.3730313375 2.5250233096 38.241305252
393 1 4.37325 0.0 42.29236008
394 1 4.37325 0.0 48.30823992
395 1 6.5600936625 1.2623222875 52.359294748
396 1 6.5600936625 1.2623222875 58.374570584
397 2 6.5600936625 1.2623222875 33.966768944
398 2 4.37325 0.0 30.2002
399 2 4.37325 0.0 36.49996172
400 2 4.3730313375 2.5250233096 44.033703612
401 2 6.5600936625 1.2623222875 40.267134668
402 2 6.5600936625 1.2623222875 46.566896388
403 2 4.37325 0.0 54.10063828
404 2 4.3730313375 2.5250233096 50.333465332
405 2 4.3730313375 2.5250233096 56.633831056
406 1 8.7462813375 2.5250233096 32.226029416
407 1 8.7462813375 2.5250233096 38.241305252
408 1 8.7465 0.0 42.29236008
409 1 8.7465 0.0 48.30823992
410 1 10.9333436625 1.2623222875 52.359294748
411 1 10.9333436625 1.2623222875 58.374570584
412 2 10.9333436625 1.2623222875 33.966768944
413 2 8.7465 0.0 30.2002
414 2 8.7465 0.0 36.49996172
415 2 8.7462813375 2.5250233096 44.033703612
416 2 10.9333436625 1.2623222875 40.267134668
417 2 10.9333436625 1.2623222875 46.566896388
418 2 8.7465 0.0 54.10063828
419 2 8.7462813375 2.5250233096 50.333465332
420 2 8.7462813375 2.5250233096 56.633831056
421 1 13.1195313375 2.5250233096 32.226029416
422 1 13.1195313375 2.5250233096 38.241305252
423 1 13.11975 0.0 42.29236008
424 1 13.11975 0.0 48.30823992
425 1 15.3065936625 1.2623222875 52.359294748
426 1 15.3065936625 1.2623222875 58.374570584
427 2 15.3065936625 1.2623222875 33.966768944
428 2 13.11975 0.0 30.2002
429 2 13.11975 0.0 36.49996172
430 2 13.1195313375 2.5250233096 44.033703612
431 2 15.3065936625 1.2623222875 40.267134668
432 2 15.3065936625 1.2623222875 46.566896388
433 2 13.11975 0.0 54.10063828
434 2 13.1195313375 2.5250233096 50.333465332
435 2 13.1195313375 2.5250233096 56.633831056
436 1 17.4927813375 2.5250233096 32.226029416
437 1 17.4927813375 2.5250233096 38.241305252
438 1 17.493 0.0 42.29236008
439 1 17.493 0.0 48.30823992
440 1 19.6798436625 1.2623222875 52.359294748
441 1 19.6798436625 1.2623222875 58.374570584
442 2 19.6798436625 1.2623222875 33.966768944
443 2 17.493 0.0 30.2002
444 2 17.493 0.0 36.49996172
445 2 17.4927813375 2.5250233096 44.033703612
446 2 19.6798436625 1.2623222875 40.267134668
447 2 19.6798436625 1.2623222875 46.566896388
448 2 17.493 0.0 54.10063828
449 2 17.4927813375 2.5250233096 50.333465332
450 2 17.4927813375 2.5250233096 56.633831056
451 1 -2.1868436625 6.3123689067 32.226029416
452 1 -2.1868436625 6.3123689067 38.241305252
453 1 -2.186625 3.7873455971 42.29236008
454 1 -2.186625 3.7873455971 48.30823992
455 1 2.186625e-04 5.0496678846 52.359294748
456 1 2.186625e-04 5.0496678846 58.374570584
457 2 2.186625e-04 5.0496678846 33.966768944
458 2 -2.186625 3.7873455971 30.2002
459 2 -2.186625 3.7873455971 36.49996172
460 2 -2.1868436625 6.3123689067 44.033703612
461 2 2.186625e-04 5.0496678846 40.267134668
462 2 2.186625e-04 5.0496678846 46.566896388
463 2 -2.186625 3.7873455971 54.10063828
464 2 -2.1868436625 6.3123689067 50.333465332
465 2 -2.1868436625 6.3123689067 56.633831056
466 1 2.1864063375 6.3123689067 32.226029416
467 1 2.1864063375 6.3123689067 38.241305252
468 1 2.186625 3.7873455971 42.29236008
469 1 2.186625 3.7873455971 48.30823992
470 1 4.3734686625 5.0496678846 52.359294748
471 1 4.3734686625 5.0496678846 58.374570584
472 2 4.3734686625 5.0496678846 33.966768944
473 2 2.186625 3.7873455971 30.2002
474 2 2.186625 3.7873455971 36.49996172
475 2 2.1864063375 6.3123689067 44.033703612
476 2 4.3734686625 5.0496678846 40.267134668
477 2 4.3734686625 5.0496678846 46.566896388
478 2 2.186625 3.7873455971 54.10063828
479 2 2.1864063375 6.3123689067 50.333465332
480 2 2.1864063375 6.3123689067 56.633831056
481 1 6.5596563375 6.3123689067 32.226029416
482 1 6.5596563375 6.3123689067 38.241305252
483 1 6.559875 3.7873455971 42.29236008
484 1 6.559875 3.7873455971 48.30823992
485 1 8.7467186625 5.0496678846 52.359294748
486 1 8.7467186625 5.0496678846 58.374570584
487 2 8.7467186625 5.0496678846 33.966768944
488 2 6.559875 3.7873455971 30.2002
489 2 6.559875 3.7873455971 36.49996172
490 2 6.5596563375 6.3123689067 44.033703612
491 2 8.7467186625 5.0496678846 40.267134668
492 2 8.7467186625 5.0496678846 46.566896388
493 2 6.559875 3.7873455971 54.10063828
494 2 6.5596563375 6.3123689067 50.333465332
495 2 6.5596563375 6.3123689067 56.633831056
496 1 10.9329063375 6.3123689067 32.226029416
497 1 10.9329063375 6.3123689067 38.241305252
498 1 10.933125 3.7873455971 42.29236008
499 1 10.933125 3.7873455971 48.30823992
500 1 13.1199686625 5.0496678846 52.359294748
501 1 13.1199686625 5.0496678846 58.374570584
502 2 13.1199686625 5.0496678846 33.966768944
503 2 10.933125 3.7873455971 30.2002
504 2 10.933125 3.7873455971 36.49996172
505 2 10.9329063375 6.3123689067 44.033703612
506 2 13.1199686625 5.0496678846 40.267134668
507 2 13.1199686625 5.0496678846 46.566896388
508 2 10.933125 3.7873455971 54.10063828
509 2 10.9329063375 6.3123689067 50.333465332
510 2 10.9329063375 6.3123689067 56.633831056
511 1 15.3061563375 6.3123689067 32.226029416
512 1 15.3061563375 6.3123689067 38.241305252
513 1 15.306375 3.7873455971 42.29236008
514 1 15.306375 3.7873455971 48.30823992
515 1 17.4932186625 5.0496678846 52.359294748
516 1 17.4932186625 5.0496678846 58.374570584
517 2 17.4932186625 5.0496678846 33.966768944
518 2 15.306375 3.7873455971 30.2002
519 2 15.306375 3.7873455971 36.49996172
520 2 15.3061563375 6.3123689067 44.033703612
521 2 17.4932186625 5.0496678846 40.267134668
522 2 17.4932186625 5.0496678846 46.566896388
523 2 15.306375 3.7873455971 54.10063828
524 2 15.3061563375 6.3123689067 50.333465332
525 2 15.3061563375 6.3123689067 56.633831056
526 1 -4.3734686625 10.0997145038 32.226029416
527 1 -4.3734686625 10.0997145038 38.241305252
528 1 -4.37325 7.5746911942 42.29236008
529 1 -4.37325 7.5746911942 48.30823992
530 1 -2.1864063375 8.8370134817 52.359294748
531 1 -2.1864063375 8.8370134817 58.374570584
532 2 -2.1864063375 8.8370134817 33.966768944
533 2 -4.37325 7.5746911942 30.2002
534 2 -4.37325 7.5746911942 36.49996172
535 2 -4.3734686625 10.0997145038 44.033703612
536 2 -2.1864063375 8.8370134817 40.267134668
537 2 -2.1864063375 8.8370134817 46.566896388
538 2 -4.37325 7.5746911942 54.10063828
539 2 -4.3734686625 10.0997145038 50.333465332
540 2 -4.3734686625 10.0997145038 56.633831056
541 1 -2.186625e-04 10.0997145038 32.226029416
542 1 -2.186625e-04 10.0997145038 38.241305252
543 1 2.6645352591e-15 7.5746911942 42.29236008
544 1 2.6645352591e-15 7.5746911942 48.30823992
545 1 2.1868436625 8.8370134817 52.359294748
546 1 2.1868436625 8.8370134817 58.374570584
547 2 2.1868436625 8.8370134817 33.966768944
548 2 2.6645352591e-15 7.5746911942 30.2002
549 2 2.6645352591e-15 7.5746911942 36.49996172
550 2 -2.186625e-04 10.0997145038 44.033703612
551 2 2.1868436625 8.8370134817 40.267134668
552 2 2.1868436625 8.8370134817 46.566896388
553 2 2.6645352591e-15 7.5746911942 54.10063828
554 2 -2.186625e-04 10.0997145038 50.333465332
555 2 -2.186625e-04 10.0997145038 56.633831056
556 1 4.3730313375 10.0997145038 32.226029416
557 1 4.3730313375 10.0997145038 38.241305252
558 1 4.37325 7.5746911942 42.29236008
559 1 4.37325 7.5746911942 48.30823992
560 1 6.5600936625 8.8370134817 52.359294748
561 1 6.5600936625 8.8370134817 58.374570584
562 2 6.5600936625 8.8370134817 33.966768944
563 2 4.37325 7.5746911942 30.2002
564 2 4.37325 7.5746911942 36.49996172
565 2 4.3730313375 10.0997145038 44.033703612
566 2 6.5600936625 8.8370134817 40.267134668
567 2 6.5600936625 8.8370134817 46.566896388
568 2 4.37325 7.5746911942 54.10063828
569 2 4.3730313375 10.0997145038 50.333465332
570 2 4.3730313375 10.0997145038 56.633831056
571 1 8.7462813375 10.0997145038 32.226029416
572 1 8.7462813375 10.0997145038 38.241305252
573 1 8.7465 7.5746911942 42.29236008
574 1 8.7465 7.5746911942 48.30823992
575 1 10.9333436625 8.8370134817 52.359294748
576 1 10.9333436625 8.8370134817 58.374570584
577 2 10.9333436625 8.8370134817 33.966768944
578 2 8.7465 7.5746911942 30.2002
579 2 8.7465 7.5746911942 36.49996172
580 2 8.7462813375 10.0997145038 44.033703612
581 2 10.9333436625 8.8370134817 40.267134668
582 2 10.9333436625 8.8370134817 46.566896388
583 2 8.7465 7.5746911942 54.10063828
584 2 8.7462813375 10.0997145038 50.333465332
585 2 8.7462813375 10.0997145038 56.633831056
586 1 13.1195313375 10.0997145038 32.226029416
587 1 13.1195313375 10.0997145038 38.241305252
588 1 13.11975 7.5746911942 42.29236008
589 1 13.11975 7.5746911942 48.30823992
590 1 15.3065936625 8.8370134817 52.359294748
591 1 15.3065936625 8.8370134817 58.374570584
592 2 15.3065936625 8.8370134817 33.966768944
593 2 13.11975 7.5746911942 30.2002
594 2 13.11975 7.5746911942 36.49996172
595 2 13.1195313375 10.0997145038 44.033703612
596 2 15.3065936625 8.8370134817 40.267134668
597 2 15.3065936625 8.8370134817 46.566896388
598 2 13.11975 7.5746911942 54.10063828
599 2 13.1195313375 10.0997145038 50.333465332
600 2 13.1195313375 10.0997145038 56.633831056
601 1 -6.5600936625 13.8870601009 32.226029416
602 1 -6.5600936625 13.8870601009 38.241305252
603 1 -6.559875 11.3620367913 42.29236008
604 1 -6.559875 11.3620367913 48.30823992
605 1 -4.3730313375 12.6243590788 52.359294748
606 1 -4.3730313375 12.6243590788 58.374570584
607 2 -4.3730313375 12.6243590788 33.966768944
608 2 -6.559875 11.3620367913 30.2002
609 2 -6.559875 11.3620367913 36.49996172
610 2 -6.5600936625 13.8870601009 44.033703612
611 2 -4.3730313375 12.6243590788 40.267134668
612 2 -4.3730313375 12.6243590788 46.566896388
613 2 -6.559875 11.3620367913 54.10063828
614 2 -6.5600936625 13.8870601009 50.333465332
615 2 -6.5600936625 13.8870601009 56.633831056
616 1 -2.1868436625 13.8870601009 32.226029416
617 1 -2.1868436625 13.8870601009 38.241305252
618 1 -2.186625 11.3620367913 42.29236008
619 1 -2.186625 11.3620367913 48.30823992
620 1 2.186625e-04 12.6243590788 52.359294748
621 1 2.186625e-04 12.6243590788 58.374570584
622 2 2.186625e-04 12.6243590788 33.966768944
623 2 -2.186625 11.3620367913 30.2002
624 2 -2.186625 11.3620367913 36.49996172
625 2 -2.1868436625 13.8870601009 44.033703612
626 2 2.186625e-04 12.6243590788 40.267134668
627 2 2.186625e-04 12.6243590788 46.566896388
628 2 -2.186625 11.3620367913 54.10063828
629 2 -2.1868436625 13.8870601009 50.333465332
630 2 -2.1868436625 13.8870601009 56.633831056
631 1 2.1864063375 13.8870601009 32.226029416
632 1 2.1864063375 13.8870601009 38.241305252
633 1 2.186625 11.3620367913 42.29236008
634 1 2.186625 11.3620367913 48.30823992
635 1 4.3734686625 12.6243590788 52.359294748
636 1 4.3734686625 12.6243590788 58.374570584
637 2 4.3734686625 12.6243590788 33.966768944
638 2 2.186625 11.3620367913 30.2002
639 2 2.186625 11.3620367913 36.49996172
640 2 2.1864063375 13.8870601009 44.033703612
641 2 4.3734686625 12.6243590788 40.267134668
642 2 4.3734686625 12.6243590788 46.566896388
643 2 2.186625 11.3620367913 54.10063828
644 2 2.1864063375 13.8870601009 50.333465332
645 2 2.1864063375 13.8870601009 56.633831056
646 1 6.5596563375 13.8870601009 32.226029416
647 1 6.5596563375 13.8870601009 38.241305252
648 1 6.559875 11.3620367913 42.29236008
649 1 6.559875 11.3620367913 48.30823992
650 1 8.7467186625 12.6243590788 52.359294748
651 1 8.7467186625 12.6243590788 58.374570584
652 2 8.7467186625 12.6243590788 33.966768944
653 2 6.559875 11.3620367913 30.2002
654 2 6.559875 11.3620367913 36.49996172
655 2 6.5596563375 13.8870601009 44.033703612
656 2 8.7467186625 12.6243590788 40.267134668
657 2 8.7467186625 12.6243590788 46.566896388
658 2 6.559875 11.3620367913 54.10063828
659 2 6.5596563375 13.8870601009 50.333465332
660 2 6.5596563375 13.8870601009 56.633831056
661 1 10.9329063375 13.8870601009 32.226029416
662 1 10.9329063375 13.8870601009 38.241305252
663 1 10.933125 11.3620367913 42.29236008
664 1 10.933125 11.3620367913 48.30823992
665 1 13.1199686625 12.6243590788 52.359294748
666 1 13.1199686625 12.6243590788 58.374570584
667 2 13.1199686625 12.6243590788 33.966768944
668 2 10.933125 11.3620367913 30.2002
669 2 10.933125 11.3620367913 36.49996172
670 2 10.9329063375 13.8870601009 44.033703612
671 2 13.1199686625 12.6243590788 40.267134668
672 2 13.1199686625 12.6243590788 46.566896388
673 2 10.933125 11.3620367913 54.10063828
674 2 10.9329063375 13.8870601009 50.333465332
675 2 10.9329063375 13.8870601009 56.633831056
676 1 -8.7467186625 17.674405698 32.226029416
677 1 -8.7467186625 17.674405698 38.241305252
678 1 -8.7465 15.1493823884 42.29236008
679 1 -8.7465 15.1493823884 48.30823992