
15 atoms
2 atom types
   0.0000000000    4.3290752302 xlo xhi
   0.0000000000    3.7490891238 ylo yhi
   0.0000000000   29.8951423351 zlo zhi
  -2.1645381856   -0.0000000001   -0.0000000001 xy xz yz

Atoms # atomic

     1      1   -0.0000025448    2.4993939989    2.0052017245
     2      1   -0.0000025448    2.4993939989    7.9598507030
     3      1    0.0000000158    0.0000000371   11.9702541521
     4      1    0.0000000242    0.0000000323   17.9248881830
     5      1    2.1645395894    1.2496951248   21.9352916321
     6      1    2.1645395894    1.2496951247   27.8899555581
     7      2    2.1645395895    1.2496951249    3.7287613132
     8      2    0.0000000244    0.0000000422    0.0000001902
     9      2    0.0000000163    0.0000000385    6.2362761668
    10      2   -0.0000025449    2.4993939988   13.6938286884
    11      2    2.1645395894    1.2496951248    9.9650374800
    12      2    2.1645395894    1.2496951248   16.2013136468
    13      2    0.0000000250    0.0000000334   23.6588661683
    14      2   -0.0000025449    2.4993939988   19.9301048551
    15      2   -0.0000025449    2.4993939988   26.1663810219
