
404 atoms
2 atom types
   0.0000000000   13.1197575554 xlo xhi
   0.0000000000   11.3620433330 ylo yhi
   0.0000000000   90.6006476356 zlo zhi
  -6.5598805065   -0.0000000003   -0.0000000004 xy xz yz

Atoms # atomic

     1      1    4.3732499477    2.5248997809    2.0256643799
     2      1    4.3732499476    2.5248997808   32.2258802584
     3      1    4.3732499475    2.5248997806   62.4260961370
     4      1    2.1866231122    6.3122475586    2.0256643799
     5      1    2.1866231121    6.3122475584   32.2258802584
     6      1    2.1866231119    6.3122475583   62.4260961370
     7      1   -0.0000037234   10.0995953362    2.0256643799
     8      1   -0.0000037235   10.0995953361   32.2258802584
     9      1   -0.0000037236   10.0995953360   62.4260961370
    10      1    8.7465024661    2.5248997809    2.0256643799
    11      1    8.7465024660    2.5248997808   32.2258802584
    12      1    8.7465024659    2.5248997806   62.4260961370
    13      1    6.5598756306    6.3122475586    2.0256643799
    14      1    6.5598756305    6.3122475584   32.2258802584
    15      1    6.5598756304    6.3122475583   62.4260961370
    16      1    4.3732487951   10.0995953362    2.0256643799
    17      1    4.3732487950   10.0995953361   32.2258802584
    18      1    4.3732487949   10.0995953360   62.4260961370
    19      1   -0.0000025708    2.5248997809    2.0256643799
    20      1   -0.0000025709    2.5248997808   32.2258802584
    21      1   -0.0000025710    2.5248997806   62.4260961370
    22      1   -2.1866294063    6.3122475586    2.0256643799
    23      1   -2.1866294064    6.3122475584   32.2258802584
    24      1   -2.1866294065    6.3122475583   62.4260961370
    25      1   -4.3732562418   10.0995953362    2.0256643799
    26      1   -4.3732562419   10.0995953361   32.2258802584
    27      1   -4.3732562420   10.0995953360   62.4260961370
    28      1    4.3732499477    2.5248997809    8.0410792796
    29      1    4.3732499476    2.5248997808   38.2412951581
    30      1    4.3732499475    2.5248997806   68.4415110367
    31      1    2.1866231122    6.3122475586    8.0410792796
    32      1    2.1866231121    6.3122475584   38.2412951581
    33      1    2.1866231119    6.3122475583   68.4415110367
    34      1   -0.0000037234   10.0995953362    8.0410792796
    35      1   -0.0000037235   10.0995953361   38.2412951581
    36      1   -0.0000037236   10.0995953360   68.4415110367
    37      1    8.7465024661    2.5248997809    8.0410792796
    38      1    8.7465024660    2.5248997808   38.2412951581
    39      1    8.7465024659    2.5248997806   68.4415110367
    40      1    6.5598756306    6.3122475586    8.0410792796
    41      1    6.5598756305    6.3122475584   38.2412951581
    42      1    6.5598756304    6.3122475583   68.4415110367
    43      1    4.3732487951   10.0995953362    8.0410792796
    44      1    4.3732487950   10.0995953361   38.2412951581
    45      1    4.3732487949   10.0995953360   68.4415110367
    46      1   -0.0000025708    2.5248997809    8.0410792796
    47      1   -0.0000025709    2.5248997808   38.2412951581
    48      1   -0.0000025710    2.5248997806   68.4415110367
    49      1   -2.1866294063    6.3122475586    8.0410792796
    50      1   -2.1866294064    6.3122475584   38.2412951581
    51      1   -2.1866294065    6.3122475583   68.4415110367
    52      1   -4.3732562418   10.0995953362    8.0410792796
    53      1   -4.3732562419   10.0995953361   38.2412951581
    54      1   -4.3732562420   10.0995953360   68.4415110367
    55      1    4.3732525345    0.0000000375   12.0924080395
    56      1    4.3732525344    0.0000000374   42.2926239180
    57      1    4.3732525343    0.0000000372   72.4928397966
    58      1    2.1866256990    3.7873478152   12.0924080395
    59      1    2.1866256989    3.7873478150   42.2926239180
    60      1    2.1866256987    3.7873478149   72.4928397966
    61      1   -0.0000011366    7.5746955928   12.0924080395
    62      1   -0.0000011367    7.5746955927   42.2926239180
    63      1   -0.0000011368    7.5746955926   72.4928397966
    64      1    8.7465050529    0.0000000375   12.0924080395
    65      1    8.7465050528    0.0000000374   42.2926239180
    66      1    8.7465050527    0.0000000372   72.4928397966
    67      1    6.5598782174    3.7873478152   12.0924080395
    68      1    6.5598782173    3.7873478150   42.2926239180
    69      1    6.5598782172    3.7873478149   72.4928397966
    70      1    4.3732513819    7.5746955928   12.0924080395
    71      1    4.3732513818    7.5746955927   42.2926239180
    72      1    4.3732513817    7.5746955926   72.4928397966
    73      1    0.0000000160    0.0000000375   12.0924080395
    74      1    0.0000000159    0.0000000374   42.2926239180
    75      1    0.0000000158    0.0000000372   72.4928397966
    76      1   -2.1866268195    3.7873478152   12.0924080395
    77      1   -2.1866268196    3.7873478150   42.2926239180
    78      1   -2.1866268197    3.7873478149   72.4928397966
    79      1   -4.3732536550    7.5746955928   12.0924080395
    80      1   -4.3732536551    7.5746955927   42.2926239180
    81      1   -4.3732536552    7.5746955926   72.4928397966
    82      1    4.3732525429    0.0000000326   18.1078078390
    83      1    4.3732525428    0.0000000325   48.3080237175
    84      1    4.3732525427    0.0000000323   78.5082395961
    85      1    2.1866257074    3.7873478103   18.1078078390
    86      1    2.1866257073    3.7873478101   48.3080237175
    87      1    2.1866257071    3.7873478100   78.5082395961
    88      1   -0.0000011282    7.5746955879   18.1078078390
    89      1   -0.0000011283    7.5746955878   48.3080237175
    90      1   -0.0000011284    7.5746955877   78.5082395961
    91      1    8.7465050613    0.0000000326   18.1078078390
    92      1    8.7465050612    0.0000000325   48.3080237175
    93      1    8.7465050611    0.0000000323   78.5082395961
    94      1    6.5598782258    3.7873478103   18.1078078390
    95      1    6.5598782257    3.7873478101   48.3080237175
    96      1    6.5598782256    3.7873478100   78.5082395961
    97      1    4.3732513903    7.5746955879   18.1078078390
    98      1    4.3732513902    7.5746955878   48.3080237175
    99      1    4.3732513901    7.5746955877   78.5082395961
   100      1    0.0000000244    0.0000000326   18.1078078390
   101      1    0.0000000243    0.0000000325   48.3080237175
   102      1    0.0000000242    0.0000000323   78.5082395961
   103      1   -2.1866268111    3.7873478103   18.1078078390
   104      1   -2.1866268112    3.7873478101   48.3080237175
   105      1   -2.1866268113    3.7873478100   78.5082395961
   106      1   -4.3732536466    7.5746955879   18.1078078390
   107      1   -4.3732536467    7.5746955878   48.3080237175
   108      1   -4.3732536468    7.5746955877   78.5082395961
   109      1    2.1866282535    1.2624479964   82.5595683560
   110      1    2.1866282537    1.2624479967   22.1591365989
   111      1    2.1866282536    1.2624479966   52.3593524774
   112      1    0.0000014180    5.0497957741   82.5595683560
   113      1    0.0000014182    5.0497957744   22.1591365989
   114      1    0.0000014181    5.0497957742   52.3593524774
   115      1   -2.1866254175    8.8371435518   82.5595683560
   116      1   -2.1866254173    8.8371435520   22.1591365989
   117      1   -2.1866254174    8.8371435519   52.3593524774
   118      1    6.5598807720    1.2624479964   82.5595683560
   119      1    6.5598807722    1.2624479967   22.1591365989
   120      1    6.5598807721    1.2624479966   52.3593524774
   121      1    4.3732539364    5.0497957741   82.5595683560
   122      1    4.3732539367    5.0497957744   22.1591365989
   123      1    4.3732539366    5.0497957742   52.3593524774
   124      1    2.1866271009    8.8371435518   82.5595683560
   125      1    2.1866271011    8.8371435520   22.1591365989
   126      1    2.1866271010    8.8371435519   52.3593524774
   127      1   10.9331332904    1.2624479964   82.5595683560
   128      1   10.9331332906    1.2624479967   22.1591365989
   129      1   10.9331332905    1.2624479966   52.3593524774
   130      1    8.7465064549    5.0497957741   82.5595683560
   131      1    8.7465064551    5.0497957744   22.1591365989
   132      1    8.7465064550    5.0497957742   52.3593524774
   133      1    6.5598796194    8.8371435518   82.5595683560
   134      1    6.5598796196    8.8371435520   22.1591365989
   135      1    6.5598796195    8.8371435519   52.3593524774
   136      1    2.1866282535    1.2624479963   88.5749983558
   137      1    2.1866282537    1.2624479966   28.1745665987
   138      1    2.1866282536    1.2624479965   58.3747824772
   139      1    0.0000014180    5.0497957740   88.5749983558
   140      1    0.0000014182    5.0497957743   28.1745665987
   141      1    0.0000014181    5.0497957741   58.3747824772
   142      1   -2.1866254175    8.8371435517   88.5749983558
   143      1   -2.1866254173    8.8371435519   28.1745665987
   144      1   -2.1866254174    8.8371435518   58.3747824772
   145      1    6.5598807720    1.2624479963   88.5749983558
   146      1    6.5598807722    1.2624479966   28.1745665987
   147      1    6.5598807721    1.2624479965   58.3747824772
   148      1    4.3732539364    5.0497957740   88.5749983558
   149      1    4.3732539367    5.0497957743   28.1745665987
   150      1    4.3732539366    5.0497957741   58.3747824772
   151      1    2.1866271009    8.8371435517   88.5749983558
   152      1    2.1866271011    8.8371435519   28.1745665987
   153      1    2.1866271010    8.8371435518   58.3747824772
   154      1   10.9331332904    1.2624479963   88.5749983558
   155      1   10.9331332906    1.2624479966   28.1745665987
   156      1   10.9331332905    1.2624479965   58.3747824772
   157      1    8.7465064549    5.0497957740   88.5749983558
   158      1    8.7465064551    5.0497957743   28.1745665987
   159      1    8.7465064550    5.0497957741   58.3747824772
   160      1    6.5598796194    8.8371435517   88.5749983558
   161      1    6.5598796196    8.8371435519   28.1745665987
   162      1    6.5598796195    8.8371435518   58.3747824772
   163      2    2.1866282537    1.2624479967   33.9670284046
   164      2    2.1866282536    1.2624479965   64.1672442832
   165      2    0.0000014183    5.0497957745    3.7668125261
   166      2    0.0000014182    5.0497957743   33.9670284046
   167      2    0.0000014181    5.0497957742   64.1672442832
   168      2   -2.1866254172    8.8371435521    3.7668125261
   169      2   -2.1866254173    8.8371435520   33.9670284046
   170      2   -2.1866254174    8.8371435519   64.1672442832
   171      2    6.5598807723    1.2624479968    3.7668125261
   172      2    6.5598807722    1.2624479967   33.9670284046
   173      2    6.5598807721    1.2624479965   64.1672442832
   174      2    4.3732539368    5.0497957745    3.7668125261
   175      2    4.3732539367    5.0497957743   33.9670284046
   176      2    4.3732539365    5.0497957742   64.1672442832
   177      2    2.1866271012    8.8371435521    3.7668125261
   178      2    2.1866271011    8.8371435520   33.9670284046
   179      2    2.1866271010    8.8371435519   64.1672442832
   180      2   10.9331332907    1.2624479968    3.7668125261
   181      2   10.9331332906    1.2624479967   33.9670284046
   182      2   10.9331332905    1.2624479965   64.1672442832
   183      2    8.7465064552    5.0497957745    3.7668125261
   184      2    8.7465064551    5.0497957743   33.9670284046
   185      2    8.7465064550    5.0497957742   64.1672442832
   186      2    6.5598796197    8.8371435521    3.7668125261
   187      2    6.5598796196    8.8371435520   33.9670284046
   188      2    6.5598796195    8.8371435519   64.1672442832
   189      2    4.3732525431    0.0000000426    0.0000001921
   190      2    4.3732525430    0.0000000425   30.2002160706
   191      2    4.3732525429    0.0000000423   60.4004319492
   192      2    2.1866257076    3.7873478203    0.0000001921
   193      2    2.1866257075    3.7873478201   30.2002160706
   194      2    2.1866257073    3.7873478200   60.4004319492
   195      2   -0.0000011280    7.5746955979    0.0000001921
   196      2   -0.0000011281    7.5746955978   30.2002160706
   197      2   -0.0000011282    7.5746955977   60.4004319492
   198      2    8.7465050615    0.0000000426    0.0000001921
   199      2    8.7465050614    0.0000000425   30.2002160706
   200      2    8.7465050613    0.0000000423   60.4004319492
   201      2    6.5598782260    3.7873478203    0.0000001921
   202      2    6.5598782259    3.7873478201   30.2002160706
   203      2    6.5598782258    3.7873478200   60.4004319492
   204      2    4.3732513905    7.5746955979    0.0000001921
   205      2    4.3732513904    7.5746955978   30.2002160706
   206      2    4.3732513903    7.5746955977   60.4004319492
   207      2    0.0000000246    0.0000000426    0.0000001921
   208      2    0.0000000245    0.0000000425   30.2002160706
   209      2    0.0000000244    0.0000000423   60.4004319492
   210      2   -2.1866268109    3.7873478203    0.0000001921
   211      2   -2.1866268110    3.7873478201   30.2002160706
   212      2   -2.1866268111    3.7873478200   60.4004319492
   213      2   -4.3732536464    7.5746955979    0.0000001921
   214      2   -4.3732536465    7.5746955978   30.2002160706
   215      2   -4.3732536466    7.5746955977   60.4004319492
   216      2    4.3732525350    0.0000000389    6.2999160333
   217      2    4.3732525349    0.0000000388   36.5001319118
   218      2    4.3732525348    0.0000000386   66.7003477904
   219      2    2.1866256995    3.7873478166    6.2999160333
   220      2    2.1866256994    3.7873478164   36.5001319118
   221      2    2.1866256992    3.7873478163   66.7003477904
   222      2   -0.0000011361    7.5746955942    6.2999160333
   223      2   -0.0000011362    7.5746955941   36.5001319118
   224      2   -0.0000011363    7.5746955940   66.7003477904
   225      2    8.7465050534    0.0000000389    6.2999160333
   226      2    8.7465050533    0.0000000388   36.5001319118
   227      2    8.7465050532    0.0000000386   66.7003477904
   228      2    6.5598782179    3.7873478166    6.2999160333
   229      2    6.5598782178    3.7873478164   36.5001319118
   230      2    6.5598782177    3.7873478163   66.7003477904
   231      2    4.3732513824    7.5746955942    6.2999160333
   232      2    4.3732513823    7.5746955941   36.5001319118
   233      2    4.3732513822    7.5746955940   66.7003477904
   234      2    0.0000000165    0.0000000389    6.2999160333
   235      2    0.0000000164    0.0000000388   36.5001319118
   236      2    0.0000000163    0.0000000386   66.7003477904
   237      2   -2.1866268190    3.7873478166    6.2999160333
   238      2   -2.1866268191    3.7873478164   36.5001319118
   239      2   -2.1866268192    3.7873478163   66.7003477904
   240      2   -4.3732536545    7.5746955942    6.2999160333
   241      2   -4.3732536546    7.5746955941   36.5001319118
   242      2   -4.3732536547    7.5746955940   66.7003477904
   243      2    4.3732499476    2.5248997808   13.8335712858
   244      2    4.3732499475    2.5248997807   44.0337871643
   245      2    4.3732499474    2.5248997805   74.2340030429
   246      2    2.1866231121    6.3122475585   13.8335712858
   247      2    2.1866231120    6.3122475583   44.0337871643
   248      2    2.1866231118    6.3122475582   74.2340030429
   249      2   -0.0000037235   10.0995953361   13.8335712858
   250      2   -0.0000037236   10.0995953360   44.0337871643
   251      2   -0.0000037237   10.0995953359   74.2340030429
   252      2    8.7465024660    2.5248997808   13.8335712858
   253      2    8.7465024659    2.5248997807   44.0337871643
   254      2    8.7465024658    2.5248997805   74.2340030429
   255      2    6.5598756305    6.3122475585   13.8335712858
   256      2    6.5598756304    6.3122475583   44.0337871643
   257      2    6.5598756303    6.3122475582   74.2340030429
   258      2    4.3732487950   10.0995953361   13.8335712858
   259      2    4.3732487949   10.0995953360   44.0337871643
   260      2    4.3732487948   10.0995953359   74.2340030429
   261      2   -0.0000025709    2.5248997808   13.8335712858
   262      2   -0.0000025710    2.5248997807   44.0337871643
   263      2   -0.0000025711    2.5248997805   74.2340030429
   264      2   -2.1866294064    6.3122475585   13.8335712858
   265      2   -2.1866294065    6.3122475583   44.0337871643
   266      2   -2.1866294066    6.3122475582   74.2340030429
   267      2   -4.3732562419   10.0995953361   13.8335712858
   268      2   -4.3732562420   10.0995953360   44.0337871643
   269      2   -4.3732562421   10.0995953359   74.2340030429
   270      2    2.1866282537    1.2624479967   10.0667285594
   271      2    2.1866282536    1.2624479966   40.2669444379
   272      2    2.1866282535    1.2624479964   70.4671603165
   273      2    0.0000014182    5.0497957744   10.0667285594
   274      2    0.0000014181    5.0497957742   40.2669444379
   275      2    0.0000014180    5.0497957741   70.4671603165
   276      2   -2.1866254173    8.8371435520   10.0667285594
   277      2   -2.1866254174    8.8371435519   40.2669444379
   278      2   -2.1866254175    8.8371435518   70.4671603165
   279      2    6.5598807722    1.2624479967   10.0667285594
   280      2    6.5598807721    1.2624479966   40.2669444379
   281      2    6.5598807720    1.2624479964   70.4671603165
   282      2    4.3732539367    5.0497957744   10.0667285594
   283      2    4.3732539366    5.0497957742   40.2669444379
   284      2    4.3732539364    5.0497957741   70.4671603165
   285      2    2.1866271011    8.8371435520   10.0667285594
   286      2    2.1866271010    8.8371435519   40.2669444379
   287      2    2.1866271009    8.8371435518   70.4671603165
   288      2   10.9331332906    1.2624479967   10.0667285594
   289      2   10.9331332905    1.2624479966   40.2669444379
   290      2   10.9331332904    1.2624479964   70.4671603165
   291      2    8.7465064551    5.0497957744   10.0667285594
   292      2    8.7465064550    5.0497957742   40.2669444379
   293      2    8.7465064549    5.0497957741   70.4671603165
   294      2    6.5598796196    8.8371435520   10.0667285594
   295      2    6.5598796195    8.8371435519   40.2669444379
   296      2    6.5598796194    8.8371435518   70.4671603165
   297      2    2.1866282537    1.2624479967   16.3666445928
   298      2    2.1866282536    1.2624479966   46.5668604713
   299      2    2.1866282535    1.2624479964   76.7670763499
   300      2    0.0000014182    5.0497957744   16.3666445928
   301      2    0.0000014181    5.0497957742   46.5668604713
   302      2    0.0000014180    5.0497957741   76.7670763499
   303      2   -2.1866254173    8.8371435520   16.3666445928
   304      2   -2.1866254174    8.8371435519   46.5668604713
   305      2   -2.1866254175    8.8371435518   76.7670763499
   306      2    6.5598807722    1.2624479967   16.3666445928
   307      2    6.5598807721    1.2624479966   46.5668604713
   308      2    6.5598807720    1.2624479964   76.7670763499
   309      2    4.3732539367    5.0497957744   16.3666445928
   310      2    4.3732539366    5.0497957742   46.5668604713
   311      2    4.3732539364    5.0497957741   76.7670763499
   312      2    2.1866271011    8.8371435520   16.3666445928
   313      2    2.1866271010    8.8371435519   46.5668604713
   314      2    2.1866271009    8.8371435518   76.7670763499
   315      2   10.9331332906    1.2624479967   16.3666445928
   316      2   10.9331332905    1.2624479966   46.5668604713
   317      2   10.9331332904    1.2624479964   76.7670763499
   318      2    8.7465064551    5.0497957744   16.3666445928
   319      2    8.7465064550    5.0497957742   46.5668604713
   320      2    8.7465064549    5.0497957741   76.7670763499
   321      2    6.5598796196    8.8371435520   16.3666445928
   322      2    6.5598796195    8.8371435519   46.5668604713
   323      2    6.5598796194    8.8371435518   76.7670763499
   324      2    4.3732525436    0.0000000334   84.3007316023
   325      2    4.3732525438    0.0000000337   23.9002998452
   326      2    4.3732525437    0.0000000336   54.1005157237
   327      2    2.1866257080    3.7873478111   84.3007316023
   328      2    2.1866257083    3.7873478114   23.9002998452
   329      2    2.1866257082    3.7873478112   54.1005157237
   330      2   -0.0000011275    7.5746955888   84.3007316023
   331      2   -0.0000011273    7.5746955890   23.9002998452
   332      2   -0.0000011274    7.5746955889   54.1005157237
   333      2    8.7465050620    0.0000000334   84.3007316023
   334      2    8.7465050622    0.0000000337   23.9002998452
   335      2    8.7465050621    0.0000000336   54.1005157237
   336      2    6.5598782265    3.7873478111   84.3007316023
   337      2    6.5598782267    3.7873478114   23.9002998452
   338      2    6.5598782266    3.7873478112   54.1005157237
   339      2    4.3732513910    7.5746955888   84.3007316023
   340      2    4.3732513912    7.5746955890   23.9002998452
   341      2    4.3732513911    7.5746955889   54.1005157237
   342      2    0.0000000251    0.0000000334   84.3007316023
   343      2    0.0000000253    0.0000000337   23.9002998452
   344      2    0.0000000252    0.0000000336   54.1005157237
   345      2   -2.1866268104    3.7873478111   84.3007316023
   346      2   -2.1866268102    3.7873478114   23.9002998452
   347      2   -2.1866268103    3.7873478112   54.1005157237
   348      2   -4.3732536459    7.5746955888   84.3007316023
   349      2   -4.3732536457    7.5746955890   23.9002998452
   350      2   -4.3732536458    7.5746955889   54.1005157237
   351      2    4.3732499474    2.5248997805   80.5339190762
   352      2    4.3732499476    2.5248997808   20.1334873191
   353      2    4.3732499475    2.5248997807   50.3337031976
   354      2    2.1866231118    6.3122475582   80.5339190762
   355      2    2.1866231121    6.3122475585   20.1334873191
   356      2    2.1866231120    6.3122475583   50.3337031976
   357      2   -0.0000037237   10.0995953359   80.5339190762
   358      2   -0.0000037235   10.0995953361   20.1334873191
   359      2   -0.0000037236   10.0995953360   50.3337031976
   360      2    8.7465024658    2.5248997805   80.5339190762
   361      2    8.7465024660    2.5248997808   20.1334873191
   362      2    8.7465024659    2.5248997807   50.3337031976
   363      2    6.5598756303    6.3122475582   80.5339190762
   364      2    6.5598756305    6.3122475585   20.1334873191
   365      2    6.5598756304    6.3122475583   50.3337031976
   366      2    4.3732487948   10.0995953359   80.5339190762
   367      2    4.3732487950   10.0995953361   20.1334873191
   368      2    4.3732487949   10.0995953360   50.3337031976
   369      2   -0.0000025711    2.5248997805   80.5339190762
   370      2   -0.0000025709    2.5248997808   20.1334873191
   371      2   -0.0000025710    2.5248997807   50.3337031976
   372      2   -2.1866294066    6.3122475582   80.5339190762
   373      2   -2.1866294064    6.3122475585   20.1334873191
   374      2   -2.1866294065    6.3122475583   50.3337031976
   375      2   -4.3732562421   10.0995953359   80.5339190762
   376      2   -4.3732562419   10.0995953361   20.1334873191
   377      2   -4.3732562420   10.0995953360   50.3337031976
   378      2    4.3732499474    2.5248997805   86.8338351095
   379      2    4.3732499476    2.5248997808   26.4334033524
   380      2    4.3732499475    2.5248997807   56.6336192309
   381      2    2.1866231118    6.3122475582   86.8338351095
   382      2    2.1866231121    6.3122475585   26.4334033524
   383      2    2.1866231120    6.3122475583   56.6336192309
   384      2   -0.0000037237   10.0995953359   86.8338351095
   385      2   -0.0000037235   10.0995953361   26.4334033524
   386      2   -0.0000037236   10.0995953360   56.6336192309
   387      2    8.7465024658    2.5248997805   86.8338351095
   388      2    8.7465024660    2.5248997808   26.4334033524
   389      2    8.7465024659    2.5248997807   56.6336192309
   390      2    6.5598756303    6.3122475582   86.8338351095
   391      2    6.5598756305    6.3122475585   26.4334033524
   392      2    6.5598756304    6.3122475583   56.6336192309
   393      2    4.3732487948   10.0995953359   86.8338351095
   394      2    4.3732487950   10.0995953361   26.4334033524
   395      2    4.3732487949   10.0995953360   56.6336192309
   396      2   -0.0000025711    2.5248997805   86.8338351095
   397      2   -0.0000025709    2.5248997808   26.4334033524
   398      2   -0.0000025710    2.5248997807   56.6336192309
   399      2   -2.1866294066    6.3122475582   86.8338351095
   400      2   -2.1866294064    6.3122475585   26.4334033524
   401      2   -2.1866294065    6.3122475583   56.6336192309
   402      2   -4.3732562421   10.0995953359   86.8338351095
   403      2   -4.3732562419   10.0995953361   26.4334033524
   404      2   -4.3732562420   10.0995953360   56.6336192309
