
15 atoms
2 atom types
   0.0000000000    4.3732525185 xlo xhi
   0.0000000000    3.7873477777 ylo yhi
   0.0000000000   30.1941752312 zlo zhi
  -2.1866268355   -0.0000000001    0.6040043174 xy xz yz

Atoms # atomic

     1      1   -0.0000025708    2.5654130685    2.0252592065
     2      1   -0.0000025708    2.6857213665    8.0394709029
     3      1    0.0000000160    0.2418481983   12.0899893160
     4      1    0.0000000244    0.3621561894   18.1041859152
     5      1    2.1866282537    1.7056307287   22.1547043283
     6      1    2.1866282537    1.8259393286   28.1689311218
     7      2    2.1866282538    1.3377842473    3.7660590882
     8      2    0.0000000246    0.0000000464    0.0000001921
     9      2    0.0000000165    0.1259983596    6.2986559241
    10      2   -0.0000025709    2.8015712065   13.8308042948
    11      2    2.1866282537    1.4637825679   10.0647150123
    12      2    2.1866282537    1.5897808886   16.3633709365
    13      2    0.0000000253    0.4780060306   23.8955193071
    14      2   -0.0000025709    2.9275695272   20.1294602189
    15      2   -0.0000025709    3.0535678478   26.4281161430
