
15 atoms
2 atom types
   0.0000000000    4.4449579272 xlo xhi
   0.0000000000    3.8494464832 ylo yhi
   0.0000000000   30.6953893940 zlo zhi
  -2.2224795493   -0.0000000001   -0.0000000001 xy xz yz

Atoms # atomic

     1      1   -0.0000026130    2.5662989386    2.0588778959
     2      1   -0.0000026130    2.5662989386    8.1729236846
     3      1    0.0000000163    0.0000000381   12.2906794765
     4      1    0.0000000248    0.0000000331   18.4047099175
     5      1    2.2224809908    1.2831475445   22.5224657093
     6      1    2.2224809908    1.2831475444   28.6365268458
     7      2    2.2224809909    1.2831475446    3.8285745283
     8      2    0.0000000250    0.0000000433    0.0000001952
     9      2    0.0000000168    0.0000000395    6.4032117045
    10      2   -0.0000026131    2.5662989385   14.0603914566
    11      2    2.2224809908    1.2831475445   10.2317862328
    12      2    2.2224809908    1.2831475445   16.6349979374
    13      2    0.0000000257    0.0000000343   24.2921776894
    14      2   -0.0000026131    2.5662989385   20.4636031611
    15      2   -0.0000026131    2.5662989385   26.8668148656
