
15 atoms
2 atom types
   0.0000000000    4.2379095733 xlo xhi
   0.0000000000    3.6701373490 ylo yhi
   0.0000000000   29.2655828695 zlo zhi
  -2.1189553451   -0.0000000001   -0.0000000001 xy xz yz

Atoms # atomic

     1      1   -0.0000024912    2.4467594560    1.9629743381
     2      1   -0.0000024912    2.4467594560    7.7922248293
     3      1    0.0000000155    0.0000000363   11.7181735056
     4      1    0.0000000236    0.0000000316   17.5474093639
     5      1    2.1189567194    1.2233778929   21.4733580402
     6      1    2.1189567194    1.2233778928   27.3026231641
     7      2    2.1189567195    1.2233778930    3.6502376202
     8      2    0.0000000238    0.0000000413    0.0000001862
     9      2    0.0000000160    0.0000000377    6.1049469145
    10      2   -0.0000024913    2.4467594559   13.4054514204
    11      2    2.1189567194    1.2233778929    9.7551845346
    12      2    2.1189567194    1.2233778929   15.8601314492
    13      2    0.0000000245    0.0000000327   23.1606359550
    14      2   -0.0000024913    2.4467594559   19.5103983349
    15      2   -0.0000024913    2.4467594559   25.6153452493
