
15 atoms
2 atom types
   0.0000000000    4.3732525185 xlo xhi
   0.0000000000    3.7865902324 ylo yhi
   0.0000000000   30.2002158785 zlo zhi
  -2.2623737911   -0.0000000001   -0.0000000001 xy xz yz

Atoms # atomic

     1      1   -0.0505005664    2.5243947504    2.0256643799
     2      1   -0.0505005664    2.5243947504    8.0410792796
     3      1    0.0000000152    0.0000000375   12.0924080395
     4      1    0.0000000237    0.0000000326   18.1078078390
     5      1    2.1613792938    1.2621954818   22.1591365989
     6      1    2.1613792938    1.2621954817   28.1745665987
     7      2    2.1613792939    1.2621954819    3.7668125261
     8      2    0.0000000237    0.0000000426    0.0000001921
     9      2    0.0000000157    0.0000000389    6.2999160333
    10      2   -0.0505005665    2.5243947503   13.8335712858
    11      2    2.1613792938    1.2621954818   10.0667285594
    12      2    2.1613792938    1.2621954818   16.3666445928
    13      2    0.0000000246    0.0000000337   23.9002998452
    14      2   -0.0505005665    2.5243947503   20.1334873191
    15      2   -0.0505005665    2.5243947503   26.4334033524
