
15 atoms
2 atom types
   0.0000000000    4.2991152722 xlo xhi
   0.0000000000    3.7231430390 ylo yhi
   0.0000000000   29.6882489081 zlo zhi
  -2.1495582026   -0.0000000001   -0.0000000001 xy xz yz

Atoms # atomic

     1      1   -0.0000025272    2.4820966004    1.9913244513
     2      1   -0.0000025272    2.4820966004    7.9047634660
     3      1    0.0000000157    0.0000000369   11.8874123688
     4      1    0.0000000240    0.0000000320   17.8008365393
     5      1    2.1495595967    1.2410464386   21.7834854421
     6      1    2.1495595967    1.2410464385   27.6969393009
     7      2    2.1495595968    1.2410464387    3.7029559098
     8      2    0.0000000242    0.0000000419    0.0000001888
     9      2    0.0000000162    0.0000000382    6.1931171634
    10      2   -0.0000025273    2.4820966003   13.5990586714
    11      2    2.1495595967    1.2410464386    9.8960730732
    12      2    2.1495595967    1.2410464386   16.0891902368
    13      2    0.0000000249    0.0000000331   23.4951317446
    14      2   -0.0000025273    2.4820966003   19.7921758348
    15      2   -0.0000025273    2.4820966003   25.9852929983
