
15 atoms
2 atom types
   0.0000000000    4.4868939692 xlo xhi
   0.0000000000    3.8857641609 ylo yhi
   0.0000000000   30.9849856421 zlo zhi
  -2.2434475759   -0.0000000001   -0.0000000001 xy xz yz

Atoms # atomic

     1      1   -0.0000026376    2.5905107359    2.0783024194
     2      1   -0.0000026376    2.5905107359    8.2500312921
     3      1    0.0000000164    0.0000000385   12.4066361310
     4      1    0.0000000250    0.0000000334   18.5783495110
     5      1    2.2434490309    1.2952534250   22.7349543499
     6      1    2.2434490309    1.2952534249   28.9066987151
     7      2    2.2434490310    1.2952534251    3.8646952892
     8      2    0.0000000252    0.0000000437    0.0000001971
     9      2    0.0000000169    0.0000000399    6.4636229298
    10      2   -0.0000026377    2.5905107358   14.1930444932
    11      2    2.2434490309    1.2952534250   10.3283182190
    12      2    2.2434490309    1.2952534250   16.7919411489
    13      2    0.0000000260    0.0000000346   24.5213627122
    14      2   -0.0000026377    2.5905107358   20.6566674230
    15      2   -0.0000026377    2.5905107358   27.1202903528
