
15 atoms
2 atom types
   0.0000000000    4.3141472661 xlo xhi
   0.0000000000    3.7361611276 ylo yhi
   0.0000000000   29.7920548188 zlo zhi
  -2.1570742015   -0.0000000001   -0.0000000001 xy xz yz

Atoms # atomic

     1      1   -0.0000025361    2.4907753305    1.9982871809
     2      1   -0.0000025361    2.4907753305    7.9324027240
     3      1    0.0000000158    0.0000000370   11.9289770859
     4      1    0.0000000241    0.0000000322   17.8630777329
     5      1    2.1570756005    1.2453857971   21.8596520948
     6      1    2.1570756005    1.2453857970   27.7937825339
     7      2    2.1570756006    1.2453857972    3.7159034134
     8      2    0.0000000243    0.0000000420    0.0000001895
     9      2    0.0000000163    0.0000000384    6.2147715954
    10      2   -0.0000025362    2.4907753304   13.6466082145
    11      2    2.1570756005    1.2453857971    9.9306750089
    12      2    2.1570756005    1.2453857971   16.1454466044
    13      2    0.0000000250    0.0000000332   23.5772832233
    14      2   -0.0000025362    2.4907753304   19.8613798099
    15      2   -0.0000025362    2.4907753304   26.0761514053
