
15 atoms
2 atom types
   0.0000000000    4.3732525185 xlo xhi
   0.0000000000    3.7873477777 ylo yhi
   0.0000000000   30.1987058300 zlo zhi
  -2.1866268355   -0.0000000001   -0.3020021589 xy xz yz

Atoms # atomic

     1      1   -0.0000025708    2.5046431371    2.0255630941
     2      1   -0.0000025708    2.4444889881    8.0406772156
     3      1    0.0000000160   -0.1209240429   12.0918034040
     4      1    0.0000000244   -0.1810780458   18.1069024260
     5      1    2.1866282537    1.0408566307   22.1580286144
     6      1    2.1866282537    0.9807023306   28.1731578352
     7      2    2.1866282538    1.2247798715    3.7666241808
     8      2    0.0000000246    0.0000000407    0.0000001921
     9      2    0.0000000165   -0.0629991214    6.2996010296
    10      2   -0.0000025709    2.3865640679   13.8328795899
    11      2    2.1866282537    1.1617807111   10.0662252104
    12      2    2.1866282537    1.0987815508   16.3658262401
    13      2    0.0000000253   -0.2390029648   23.8991048003
    14      2   -0.0000025709    2.3235649076   20.1324806196
    15      2   -0.0000025709    2.2605657473   26.4320816492
