
15 atoms
2 atom types
   0.0000000000    4.3732525185 xlo xhi
   0.0000000000    3.7873477777 ylo yhi
   0.0000000000   30.1941752312 zlo zhi
  -2.1866268355    0.6040043175   -0.0000000001 xy xz yz

Atoms # atomic

     1      1    0.0405107168    2.5248997809    2.0252592065
     2      1    0.1608190148    2.5248997809    8.0394709029
     3      1    0.2418481768    0.0000000375   12.0899893160
     4      1    0.3621561812    0.0000000326   18.1041859152
     5      1    2.6298109857    1.2624479967   22.1547043283
     6      1    2.7501195857    1.2624479966   28.1689311218
     7      2    2.2619645043    1.2624479968    3.7660590882
     8      2    0.0000000284    0.0000000426    0.0000001921
     9      2    0.1259983372    0.0000000389    6.2986559241
    10      2    0.2766688548    2.5248997808   13.8308042948
    11      2    2.3879628249    1.2624479967   10.0647150123
    12      2    2.5139611456    1.2624479967   16.3633709365
    13      2    0.4780060222    0.0000000337   23.8955193071
    14      2    0.4026671755    2.5248997808   20.1294602189
    15      2    0.5286654961    2.5248997808   26.4281161430
