
15 atoms
2 atom types
   0.0000000000    4.3732525185 xlo xhi
   0.0000000000    3.7683634587 ylo yhi
   0.0000000000   30.2002158785 zlo zhi
  -2.1866268355   -0.0000000001   -0.0000000001 xy xz yz

Atoms # atomic

     1      1   -0.0000025708    2.5122435619    2.0256643799
     2      1   -0.0000025708    2.5122435619    8.0410792796
     3      1    0.0000000160    0.0000000373   12.0924080395
     4      1    0.0000000244    0.0000000324   18.1078078390
     5      1    2.1866282537    1.2561198967   22.1591365989
     6      1    2.1866282537    1.2561198966   28.1745665987
     7      2    2.1866282538    1.2561198968    3.7668125261
     8      2    0.0000000246    0.0000000424    0.0000001921
     9      2    0.0000000165    0.0000000387    6.2999160333
    10      2   -0.0000025709    2.5122435618   13.8335712858
    11      2    2.1866282537    1.2561198967   10.0667285594
    12      2    2.1866282537    1.2561198967   16.3666445928
    13      2    0.0000000253    0.0000000335   23.9002998452
    14      2   -0.0000025709    2.5122435618   20.1334873191
    15      2   -0.0000025709    2.5122435618   26.4334033524
