
15 atoms
2 atom types
   0.0000000000    4.3586261466 xlo xhi
   0.0000000000    3.7746809681 ylo yhi
   0.0000000000   30.0992110576 zlo zhi
  -2.1793136477   -0.0000000001   -0.0000000001 xy xz yz

Atoms # atomic

     1      1   -0.0000025622    2.5164552370    2.0188895320
     2      1   -0.0000025622    2.5164552370    8.0141858370
     3      1    0.0000000159    0.0000000374   12.0519649012
     4      1    0.0000000243    0.0000000325   18.0472461564
     5      1    2.1793150611    1.2582257311   22.0850252206
     6      1    2.1793150611    1.2582257310   28.0803365751
     7      2    2.1793150612    1.2582257312    3.7542143968
     8      2    0.0000000245    0.0000000425    0.0000001915
     9      2    0.0000000164    0.0000000388    6.2788459226
    10      2   -0.0000025623    2.5164552369   13.7873048155
    11      2    2.1793150611    1.2582257311   10.0330603194
    12      2    2.1793150611    1.2582257311   16.3119062421
    13      2    0.0000000252    0.0000000336   23.8203651349
    14      2   -0.0000025623    2.5164552369   20.0661507381
    15      2   -0.0000025623    2.5164552369   26.3449966608
