
60 atoms
2 atom types
   0.0000000000    3.0923565117 xlo xhi
   0.0000000000    5.3561185933 ylo yhi
   0.0000000000   83.2220570445 zlo zhi
   0.0000000000    0.0000000000    0.0000000000 xy xz yz

Atoms # atomic

     1      1    0.0000000000    0.0000000000    5.0000000000
     2      1    1.5461782558    0.8926864322    7.5248985188
     3      1    1.5461782558    2.6780592967    5.0000000000
     4      1    0.0000000000    1.7853728644   10.0497970376
     5      1    0.0000000000    3.5707457289    7.5248985188
     6      1    1.5461782558    4.4634321611   10.0497970376
     7      1    0.0000000000    0.0000000000   12.5746955563
     8      1    1.5461782558    0.8926864322   15.0995940751
     9      1    1.5461782558    2.6780592967   12.5746955563
    10      1    0.0000000000    1.7853728644   17.6244925939
    11      1    0.0000000000    3.5707457289   15.0995940751
    12      1    1.5461782558    4.4634321611   17.6244925939
    13      1    0.0000000000    0.0000000000   20.1493911127
    14      1    1.5461782558    0.8926864322   22.6742896314
    15      1    1.5461782558    2.6780592967   20.1493911127
    16      1    0.0000000000    1.7853728644   25.1991881502
    17      1    0.0000000000    3.5707457289   22.6742896314
    18      1    1.5461782558    4.4634321611   25.1991881502
    19      1    0.0000000000    0.0000000000   27.7240866690
    20      1    1.5461782558    0.8926864322   30.2489851878
    21      1    1.5461782558    2.6780592967   27.7240866690
    22      1    0.0000000000    1.7853728644   32.7738837065
    23      1    0.0000000000    3.5707457289   30.2489851878
    24      1    1.5461782558    4.4634321611   32.7738837065
    25      1    0.0000000000    0.0000000000   35.2987822253
    26      1    1.5461782558    0.8926864322   37.8236807441
    27      1    1.5461782558    2.6780592967   35.2987822253
    28      1    0.0000000000    1.7853728644   40.3485792629
    29      1    0.0000000000    3.5707457289   37.8236807441
    30      1    1.5461782558    4.4634321611   40.3485792629
    31      1    2.4738852093    0.0000000000   42.8734777816
    32      1    0.9277069535    0.8926864322   45.3983763004
    33      1    0.9277069535    2.6780592967   42.8734777816
    34      1    2.4738852093    1.7853728644   47.9232748192
    35      1    2.4738852093    3.5707457289   45.3983763004
    36      1    0.9277069535    4.4634321611   47.9232748192
    37      1    2.4738852093    0.0000000000   50.4481733380
    38      1    0.9277069535    0.8926864322   52.9730718567
    39      1    0.9277069535    2.6780592967   50.4481733380
    40      1    2.4738852093    1.7853728644   55.4979703755
    41      1    2.4738852093    3.5707457289   52.9730718567
    42      1    0.9277069535    4.4634321611   55.4979703755
    43      1    2.4738852093    0.0000000000   58.0228688943
    44      1    0.9277069535    0.8926864322   60.5477674131
    45      1    0.9277069535    2.6780592967   58.0228688943
    46      1    2.4738852093    1.7853728644   63.0726659318
    47      1    2.4738852093    3.5707457289   60.5477674131
    48      1    0.9277069535    4.4634321611   63.0726659318
    49      1    2.4738852093    0.0000000000   65.5975644506
    50      1    0.9277069535    0.8926864322   68.1224629694
    51      1    0.9277069535    2.6780592967   65.5975644506
    52      1    2.4738852093    1.7853728644   70.6473614882
    53      1    2.4738852093    3.5707457289   68.1224629694
    54      1    0.9277069535    4.4634321611   70.6473614882
    55      1    2.4738852093    0.0000000000   73.1722600069
    56      1    0.9277069535    0.8926864322   75.6971585257
    57      1    0.9277069535    2.6780592967   73.1722600069
    58      1    2.4738852093    1.7853728644   78.2220570445
    59      1    2.4738852093    3.5707457289   75.6971585257
    60      1    0.9277069535    4.4634321611   78.2220570445
