
15 atoms
2 atom types
   0.0000000000    4.2687318168 xlo xhi
   0.0000000000    3.6968301948 ylo yhi
   0.0000000000   29.4784309506 zlo zhi
  -2.1343664709   -0.0000000001   -0.0000000001 xy xz yz

Atoms # atomic

     1      1   -0.0000025094    2.4645546955    1.9772510168
     2      1   -0.0000025094    2.4645546955    7.8488975465
     3      1    0.0000000156    0.0000000366   11.8033995801
     4      1    0.0000000238    0.0000000318   17.6750313705
     5      1    2.1343678552    1.2322754993   21.6295334041
     6      1    2.1343678552    1.2322754992   27.5011946730
     7      2    2.1343678553    1.2322754994    3.6767857356
     8      2    0.0000000240    0.0000000416    0.0000001875
     9      2    0.0000000161    0.0000000380    6.1493480884
    10      2   -0.0000025095    2.4645546954   13.5029490382
    11      2    2.1343678552    1.2322754993    9.8261338240
    12      2    2.1343678552    1.2322754993   15.9754819125
    13      2    0.0000000247    0.0000000329   23.3290828622
    14      2   -0.0000025095    2.4645546954   19.6522971266
    15      2   -0.0000025095    2.4645546954   25.8016452150
