# LAMMPS data file written by OVITO Basic 3.11.0

6480 atoms
2 atom types

0.0 45.4482 xlo xhi
0.0 78.7186 ylo yhi
0.0 60.4004 zlo zhi

Masses

1 208.98038  # Bi
2 127.6  # Te

Atoms  # atomic

1 1 1.262550996 2.186802708 2.025829416
2 1 5.049749502 0.0 2.025829416
3 1 1.262550996 2.186802708 8.041105252
4 1 5.049749502 0.0 8.041105252
5 1 0.0 0.0 12.09216008
6 1 3.787198506 2.186802708 12.09216008
7 1 0.0 0.0 18.10803992
8 1 3.787198506 2.186802708 18.10803992
9 1 2.525101992 0.0 22.159094748
10 1 6.312300498 2.186802708 22.159094748
11 1 2.525101992 0.0 28.174370584
12 1 6.312300498 2.186802708 28.174370584
13 2 2.525101992 0.0 3.766568944
14 2 6.312300498 2.186802708 3.766568944
15 2 0.0 0.0 0.0
16 2 3.787198506 2.186802708 0.0
17 2 0.0 0.0 6.29976172
18 2 3.787198506 2.186802708 6.29976172
19 2 1.262550996 2.186802708 13.833503612
20 2 5.049749502 0.0 13.833503612
21 2 2.525101992 0.0 10.066934668
22 2 6.312300498 2.186802708 10.066934668
23 2 2.525101992 0.0 16.366696388
24 2 6.312300498 2.186802708 16.366696388
25 2 0.0 0.0 23.90043828
26 2 3.787198506 2.186802708 23.90043828
27 2 1.262550996 2.186802708 20.133265332
28 2 5.049749502 0.0 20.133265332
29 2 1.262550996 2.186802708 26.433631056
30 2 5.049749502 0.0 26.433631056
31 1 1.262550996 2.186802708 32.226029416
32 1 5.049749502 0.0 32.226029416
33 1 1.262550996 2.186802708 38.241305252
34 1 5.049749502 0.0 38.241305252
35 1 0.0 0.0 42.29236008
36 1 3.787198506 2.186802708 42.29236008
37 1 0.0 0.0 48.30823992
38 1 3.787198506 2.186802708 48.30823992
39 1 2.525101992 0.0 52.359294748
40 1 6.312300498 2.186802708 52.359294748
41 1 2.525101992 0.0 58.374570584
42 1 6.312300498 2.186802708 58.374570584
43 2 2.525101992 0.0 33.966768944
44 2 6.312300498 2.186802708 33.966768944
45 2 0.0 0.0 30.2002
46 2 3.787198506 2.186802708 30.2002
47 2 0.0 0.0 36.49996172
48 2 3.787198506 2.186802708 36.49996172
49 2 1.262550996 2.186802708 44.033703612
50 2 5.049749502 0.0 44.033703612
51 2 2.525101992 0.0 40.267134668
52 2 6.312300498 2.186802708 40.267134668
53 2 2.525101992 0.0 46.566896388
54 2 6.312300498 2.186802708 46.566896388
55 2 0.0 0.0 54.10063828
56 2 3.787198506 2.186802708 54.10063828
57 2 1.262550996 2.186802708 50.333465332
58 2 5.049749502 0.0 50.333465332
59 2 1.262550996 2.186802708 56.633831056
60 2 5.049749502 0.0 56.633831056
61 1 8.836948008 2.186802708 2.025829416
62 1 12.624600996 0.0 2.025829416
63 1 8.836948008 2.186802708 8.041105252
64 1 12.624600996 0.0 8.041105252
65 1 7.574851494 0.0 12.09216008
66 1 11.36205 2.186802708 12.09216008
67 1 7.574851494 0.0 18.10803992
68 1 11.36205 2.186802708 18.10803992
69 1 10.099499004 0.0 22.159094748
70 1 13.887151992 2.186802708 22.159094748
71 1 10.099499004 0.0 28.174370584
72 1 13.887151992 2.186802708 28.174370584
73 2 10.099499004 0.0 3.766568944
74 2 13.887151992 2.186802708 3.766568944
75 2 7.574851494 0.0 0.0
76 2 11.36205 2.186802708 0.0
77 2 7.574851494 0.0 6.29976172
78 2 11.36205 2.186802708 6.29976172
79 2 8.836948008 2.186802708 13.833503612
80 2 12.624600996 0.0 13.833503612
81 2 10.099499004 0.0 10.066934668
82 2 13.887151992 2.186802708 10.066934668
83 2 10.099499004 0.0 16.366696388
84 2 13.887151992 2.186802708 16.366696388
85 2 7.574851494 0.0 23.90043828
86 2 11.36205 2.186802708 23.90043828
87 2 8.836948008 2.186802708 20.133265332
88 2 12.624600996 0.0 20.133265332
89 2 8.836948008 2.186802708 26.433631056
90 2 12.624600996 0.0 26.433631056
91 1 8.836948008 2.186802708 32.226029416
92 1 12.624600996 0.0 32.226029416
93 1 8.836948008 2.186802708 38.241305252
94 1 12.624600996 0.0 38.241305252
95 1 7.574851494 0.0 42.29236008
96 1 11.36205 2.186802708 42.29236008
97 1 7.574851494 0.0 48.30823992
98 1 11.36205 2.186802708 48.30823992
99 1 10.099499004 0.0 52.359294748
100 1 13.887151992 2.186802708 52.359294748
101 1 10.099499004 0.0 58.374570584
102 1 13.887151992 2.186802708 58.374570584
103 2 10.099499004 0.0 33.966768944
104 2 13.887151992 2.186802708 33.966768944
105 2 7.574851494 0.0 30.2002
106 2 11.36205 2.186802708 30.2002
107 2 7.574851494 0.0 36.49996172
108 2 11.36205 2.186802708 36.49996172
109 2 8.836948008 2.186802708 44.033703612
110 2 12.624600996 0.0 44.033703612
111 2 10.099499004 0.0 40.267134668
112 2 13.887151992 2.186802708 40.267134668
113 2 10.099499004 0.0 46.566896388
114 2 13.887151992 2.186802708 46.566896388
115 2 7.574851494 0.0 54.10063828
116 2 11.36205 2.186802708 54.10063828
117 2 8.836948008 2.186802708 50.333465332
118 2 12.624600996 0.0 50.333465332
119 2 8.836948008 2.186802708 56.633831056
120 2 12.624600996 0.0 56.633831056
121 1 16.411799502 2.186802708 2.025829416
122 1 20.198998008 0.0 2.025829416
123 1 16.411799502 2.186802708 8.041105252
124 1 20.198998008 0.0 8.041105252
125 1 15.149248506 0.0 12.09216008
126 1 18.936901494 2.186802708 12.09216008
127 1 15.149248506 0.0 18.10803992
128 1 18.936901494 2.186802708 18.10803992
129 1 17.674350498 0.0 22.159094748
130 1 21.461549004 2.186802708 22.159094748
131 1 17.674350498 0.0 28.174370584
132 1 21.461549004 2.186802708 28.174370584
133 2 17.674350498 0.0 3.766568944
134 2 21.461549004 2.186802708 3.766568944
135 2 15.149248506 0.0 0.0
136 2 18.936901494 2.186802708 0.0
137 2 15.149248506 0.0 6.29976172
138 2 18.936901494 2.186802708 6.29976172
139 2 16.411799502 2.186802708 13.833503612
140 2 20.198998008 0.0 13.833503612
141 2 17.674350498 0.0 10.066934668
142 2 21.461549004 2.186802708 10.066934668
143 2 17.674350498 0.0 16.366696388
144 2 21.461549004 2.186802708 16.366696388
145 2 15.149248506 0.0 23.90043828
146 2 18.936901494 2.186802708 23.90043828
147 2 16.411799502 2.186802708 20.133265332
148 2 20.198998008 0.0 20.133265332
149 2 16.411799502 2.186802708 26.433631056
150 2 20.198998008 0.0 26.433631056
151 1 16.411799502 2.186802708 32.226029416
152 1 20.198998008 0.0 32.226029416
153 1 16.411799502 2.186802708 38.241305252
154 1 20.198998008 0.0 38.241305252
155 1 15.149248506 0.0 42.29236008
156 1 18.936901494 2.186802708 42.29236008
157 1 15.149248506 0.0 48.30823992
158 1 18.936901494 2.186802708 48.30823992
159 1 17.674350498 0.0 52.359294748
160 1 21.461549004 2.186802708 52.359294748
161 1 17.674350498 0.0 58.374570584
162 1 21.461549004 2.186802708 58.374570584
163 2 17.674350498 0.0 33.966768944
164 2 21.461549004 2.186802708 33.966768944
165 2 15.149248506 0.0 30.2002
166 2 18.936901494 2.186802708 30.2002
167 2 15.149248506 0.0 36.49996172
168 2 18.936901494 2.186802708 36.49996172
169 2 16.411799502 2.186802708 44.033703612
170 2 20.198998008 0.0 44.033703612
171 2 17.674350498 0.0 40.267134668
172 2 21.461549004 2.186802708 40.267134668
173 2 17.674350498 0.0 46.566896388
174 2 21.461549004 2.186802708 46.566896388
175 2 15.149248506 0.0 54.10063828
176 2 18.936901494 2.186802708 54.10063828
177 2 16.411799502 2.186802708 50.333465332
178 2 20.198998008 0.0 50.333465332
179 2 16.411799502 2.186802708 56.633831056
180 2 20.198998008 0.0 56.633831056
181 1 23.986650996 2.186802708 2.025829416
182 1 27.773849502 0.0 2.025829416
183 1 23.986650996 2.186802708 8.041105252
184 1 27.773849502 0.0 8.041105252
185 1 22.7241 0.0 12.09216008
186 1 26.511298506 2.186802708 12.09216008
187 1 22.7241 0.0 18.10803992
188 1 26.511298506 2.186802708 18.10803992
189 1 25.249201992 0.0 22.159094748
190 1 29.036400498 2.186802708 22.159094748
191 1 25.249201992 0.0 28.174370584
192 1 29.036400498 2.186802708 28.174370584
193 2 25.249201992 0.0 3.766568944
194 2 29.036400498 2.186802708 3.766568944
195 2 22.7241 0.0 0.0
196 2 26.511298506 2.186802708 0.0
197 2 22.7241 0.0 6.29976172
198 2 26.511298506 2.186802708 6.29976172
199 2 23.986650996 2.186802708 13.833503612
200 2 27.773849502 0.0 13.833503612
201 2 25.249201992 0.0 10.066934668
202 2 29.036400498 2.186802708 10.066934668
203 2 25.249201992 0.0 16.366696388
204 2 29.036400498 2.186802708 16.366696388
205 2 22.7241 0.0 23.90043828
206 2 26.511298506 2.186802708 23.90043828
207 2 23.986650996 2.186802708 20.133265332
208 2 27.773849502 0.0 20.133265332
209 2 23.986650996 2.186802708 26.433631056
210 2 27.773849502 0.0 26.433631056
211 1 23.986650996 2.186802708 32.226029416
212 1 27.773849502 0.0 32.226029416
213 1 23.986650996 2.186802708 38.241305252
214 1 27.773849502 0.0 38.241305252
215 1 22.7241 0.0 42.29236008
216 1 26.511298506 2.186802708 42.29236008
217 1 22.7241 0.0 48.30823992
218 1 26.511298506 2.186802708 48.30823992
219 1 25.249201992 0.0 52.359294748
220 1 29.036400498 2.186802708 52.359294748
221 1 25.249201992 0.0 58.374570584
222 1 29.036400498 2.186802708 58.374570584
223 2 25.249201992 0.0 33.966768944
224 2 29.036400498 2.186802708 33.966768944
225 2 22.7241 0.0 30.2002
226 2 26.511298506 2.186802708 30.2002
227 2 22.7241 0.0 36.49996172
228 2 26.511298506 2.186802708 36.49996172
229 2 23.986650996 2.186802708 44.033703612
230 2 27.773849502 0.0 44.033703612
231 2 25.249201992 0.0 40.267134668
232 2 29.036400498 2.186802708 40.267134668
233 2 25.249201992 0.0 46.566896388
234 2 29.036400498 2.186802708 46.566896388
235 2 22.7241 0.0 54.10063828
236 2 26.511298506 2.186802708 54.10063828
237 2 23.986650996 2.186802708 50.333465332
238 2 27.773849502 0.0 50.333465332
239 2 23.986650996 2.186802708 56.633831056
240 2 27.773849502 0.0 56.633831056
241 1 31.561048008 2.186802708 2.025829416
242 1 35.348700996 0.0 2.025829416
243 1 31.561048008 2.186802708 8.041105252
244 1 35.348700996 0.0 8.041105252
245 1 30.298951494 0.0 12.09216008
246 1 34.08615 2.186802708 12.09216008
247 1 30.298951494 0.0 18.10803992
248 1 34.08615 2.186802708 18.10803992
249 1 32.823599004 0.0 22.159094748
250 1 36.611251992 2.186802708 22.159094748
251 1 32.823599004 0.0 28.174370584
252 1 36.611251992 2.186802708 28.174370584
253 2 32.823599004 0.0 3.766568944
254 2 36.611251992 2.186802708 3.766568944
255 2 30.298951494 0.0 0.0
256 2 34.08615 2.186802708 0.0
257 2 30.298951494 0.0 6.29976172
258 2 34.08615 2.186802708 6.29976172
259 2 31.561048008 2.186802708 13.833503612
260 2 35.348700996 0.0 13.833503612
261 2 32.823599004 0.0 10.066934668
262 2 36.611251992 2.186802708 10.066934668
263 2 32.823599004 0.0 16.366696388
264 2 36.611251992 2.186802708 16.366696388
265 2 30.298951494 0.0 23.90043828
266 2 34.08615 2.186802708 23.90043828
267 2 31.561048008 2.186802708 20.133265332
268 2 35.348700996 0.0 20.133265332
269 2 31.561048008 2.186802708 26.433631056
270 2 35.348700996 0.0 26.433631056
271 1 31.561048008 2.186802708 32.226029416
272 1 35.348700996 0.0 32.226029416
273 1 31.561048008 2.186802708 38.241305252
274 1 35.348700996 0.0 38.241305252
275 1 30.298951494 0.0 42.29236008
276 1 34.08615 2.186802708 42.29236008
277 1 30.298951494 0.0 48.30823992
278 1 34.08615 2.186802708 48.30823992
279 1 32.823599004 0.0 52.359294748
280 1 36.611251992 2.186802708 52.359294748
281 1 32.823599004 0.0 58.374570584
282 1 36.611251992 2.186802708 58.374570584
283 2 32.823599004 0.0 33.966768944
284 2 36.611251992 2.186802708 33.966768944
285 2 30.298951494 0.0 30.2002
286 2 34.08615 2.186802708 30.2002
287 2 30.298951494 0.0 36.49996172
288 2 34.08615 2.186802708 36.49996172
289 2 31.561048008 2.186802708 44.033703612
290 2 35.348700996 0.0 44.033703612
291 2 32.823599004 0.0 40.267134668
292 2 36.611251992 2.186802708 40.267134668
293 2 32.823599004 0.0 46.566896388
294 2 36.611251992 2.186802708 46.566896388
295 2 30.298951494 0.0 54.10063828
296 2 34.08615 2.186802708 54.10063828
297 2 31.561048008 2.186802708 50.333465332
298 2 35.348700996 0.0 50.333465332
299 2 31.561048008 2.186802708 56.633831056
300 2 35.348700996 0.0 56.633831056
301 1 39.135899502 2.186802708 2.025829416
302 1 42.923098008 0.0 2.025829416
303 1 39.135899502 2.186802708 8.041105252
304 1 42.923098008 0.0 8.041105252
305 1 37.873348506 0.0 12.09216008
306 1 41.661001494 2.186802708 12.09216008
307 1 37.873348506 0.0 18.10803992
308 1 41.661001494 2.186802708 18.10803992
309 1 40.398450498 0.0 22.159094748
310 1 44.185649004 2.186802708 22.159094748
311 1 40.398450498 0.0 28.174370584
312 1 44.185649004 2.186802708 28.174370584
313 2 40.398450498 0.0 3.766568944
314 2 44.185649004 2.186802708 3.766568944
315 2 37.873348506 0.0 0.0
316 2 41.661001494 2.186802708 0.0
317 2 37.873348506 0.0 6.29976172
318 2 41.661001494 2.186802708 6.29976172
319 2 39.135899502 2.186802708 13.833503612
320 2 42.923098008 0.0 13.833503612
321 2 40.398450498 0.0 10.066934668
322 2 44.185649004 2.186802708 10.066934668
323 2 40.398450498 0.0 16.366696388
324 2 44.185649004 2.186802708 16.366696388
325 2 37.873348506 0.0 23.90043828
326 2 41.661001494 2.186802708 23.90043828
327 2 39.135899502 2.186802708 20.133265332
328 2 42.923098008 0.0 20.133265332
329 2 39.135899502 2.186802708 26.433631056
330 2 42.923098008 0.0 26.433631056
331 1 39.135899502 2.186802708 32.226029416
332 1 42.923098008 0.0 32.226029416
333 1 39.135899502 2.186802708 38.241305252
334 1 42.923098008 0.0 38.241305252
335 1 37.873348506 0.0 42.29236008
336 1 41.661001494 2.186802708 42.29236008
337 1 37.873348506 0.0 48.30823992
338 1 41.661001494 2.186802708 48.30823992
339 1 40.398450498 0.0 52.359294748
340 1 44.185649004 2.186802708 52.359294748
341 1 40.398450498 0.0 58.374570584
342 1 44.185649004 2.186802708 58.374570584
343 2 40.398450498 0.0 33.966768944
344 2 44.185649004 2.186802708 33.966768944
345 2 37.873348506 0.0 30.2002
346 2 41.661001494 2.186802708 30.2002
347 2 37.873348506 0.0 36.49996172
348 2 41.661001494 2.186802708 36.49996172
349 2 39.135899502 2.186802708 44.033703612
350 2 42.923098008 0.0 44.033703612
351 2 40.398450498 0.0 40.267134668
352 2 44.185649004 2.186802708 40.267134668
353 2 40.398450498 0.0 46.566896388
354 2 44.185649004 2.186802708 46.566896388
355 2 37.873348506 0.0 54.10063828
356 2 41.661001494 2.186802708 54.10063828
357 2 39.135899502 2.186802708 50.333465332
358 2 42.923098008 0.0 50.333465332
359 2 39.135899502 2.186802708 56.633831056
360 2 42.923098008 0.0 56.633831056
361 1 1.262550996 6.559620938 2.025829416
362 1 5.049749502 4.373605416 2.025829416
363 1 1.262550996 6.559620938 8.041105252
364 1 5.049749502 4.373605416 8.041105252
365 1 0.0 4.373605416 12.09216008
366 1 3.787198506 6.559620938 12.09216008
367 1 0.0 4.373605416 18.10803992
368 1 3.787198506 6.559620938 18.10803992
369 1 2.525101992 4.373605416 22.159094748
370 1 6.312300498 6.559620938 22.159094748
371 1 2.525101992 4.373605416 28.174370584
372 1 6.312300498 6.559620938 28.174370584
373 2 2.525101992 4.373605416 3.766568944
374 2 6.312300498 6.559620938 3.766568944
375 2 0.0 4.373605416 0.0
376 2 3.787198506 6.559620938 0.0
377 2 0.0 4.373605416 6.29976172
378 2 3.787198506 6.559620938 6.29976172
379 2 1.262550996 6.559620938 13.833503612
380 2 5.049749502 4.373605416 13.833503612
381 2 2.525101992 4.373605416 10.066934668
382 2 6.312300498 6.559620938 10.066934668
383 2 2.525101992 4.373605416 16.366696388
384 2 6.312300498 6.559620938 16.366696388
385 2 0.0 4.373605416 23.90043828
386 2 3.787198506 6.559620938 23.90043828
387 2 1.262550996 6.559620938 20.133265332
388 2 5.049749502 4.373605416 20.133265332
389 2 1.262550996 6.559620938 26.433631056
390 2 5.049749502 4.373605416 26.433631056
391 1 1.262550996 6.559620938 32.226029416
392 1 5.049749502 4.373605416 32.226029416
393 1 1.262550996 6.559620938 38.241305252
394 1 5.049749502 4.373605416 38.241305252
395 1 0.0 4.373605416 42.29236008
396 1 3.787198506 6.559620938 42.29236008
397 1 0.0 4.373605416 48.30823992
398 1 3.787198506 6.559620938 48.30823992
399 1 2.525101992 4.373605416 52.359294748
400 1 6.312300498 6.559620938 52.359294748
401 1 2.525101992 4.373605416 58.374570584
402 1 6.312300498 6.559620938 58.374570584
403 2 2.525101992 4.373605416 33.966768944
404 2 6.312300498 6.559620938 33.966768944
405 2 0.0 4.373605416 30.2002
406 2 3.787198506 6.559620938 30.2002
407 2 0.0 4.373605416 36.49996172
408 2 3.787198506 6.559620938 36.49996172
409 2 1.262550996 6.559620938 44.033703612
410 2 5.049749502 4.373605416 44.033703612
411 2 2.525101992 4.373605416 40.267134668
412 2 6.312300498 6.559620938 40.267134668
413 2 2.525101992 4.373605416 46.566896388
414 2 6.312300498 6.559620938 46.566896388
415 2 0.0 4.373605416 54.10063828
416 2 3.787198506 6.559620938 54.10063828
417 2 1.262550996 6.559620938 50.333465332
418 2 5.049749502 4.373605416 50.333465332
419 2 1.262550996 6.559620938 56.633831056
420 2 5.049749502 4.373605416 56.633831056
421 1 8.836948008 6.559620938 2.025829416
422 1 12.624600996 4.373605416 2.025829416
423 1 8.836948008 6.559620938 8.041105252
424 1 12.624600996 4.373605416 8.041105252
425 1 7.574851494 4.373605416 12.09216008
426 1 11.36205 6.559620938 12.09216008
427 1 7.574851494 4.373605416 18.10803992
428 1 11.36205 6.559620938 18.10803992
429 1 10.099499004 4.373605416 22.159094748
430 1 13.887151992 6.559620938 22.159094748
431 1 10.099499004 4.373605416 28.174370584
432 1 13.887151992 6.559620938 28.174370584
433 2 10.099499004 4.373605416 3.766568944
434 2 13.887151992 6.559620938 3.766568944
435 2 7.574851494 4.373605416 0.0
436 2 11.36205 6.559620938 0.0
437 2 7.574851494 4.373605416 6.29976172
438 2 11.36205 6.559620938 6.29976172
439 2 8.836948008 6.559620938 13.833503612
440 2 12.624600996 4.373605416 13.833503612
441 2 10.099499004 4.373605416 10.066934668
442 2 13.887151992 6.559620938 10.066934668
443 2 10.099499004 4.373605416 16.366696388
444 2 13.887151992 6.559620938 16.366696388
445 2 7.574851494 4.373605416 23.90043828
446 2 11.36205 6.559620938 23.90043828
447 2 8.836948008 6.559620938 20.133265332
448 2 12.624600996 4.373605416 20.133265332
449 2 8.836948008 6.559620938 26.433631056
450 2 12.624600996 4.373605416 26.433631056
451 1 8.836948008 6.559620938 32.226029416
452 1 12.624600996 4.373605416 32.226029416
453 1 8.836948008 6.559620938 38.241305252
454 1 12.624600996 4.373605416 38.241305252
455 1 7.574851494 4.373605416 42.29236008
456 1 11.36205 6.559620938 42.29236008
457 1 7.574851494 4.373605416 48.30823992
458 1 11.36205 6.559620938 48.30823992
459 1 10.099499004 4.373605416 52.359294748
460 1 13.887151992 6.559620938 52.359294748
461 1 10.099499004 4.373605416 58.374570584
462 1 13.887151992 6.559620938 58.374570584
463 2 10.099499004 4.373605416 33.966768944
464 2 13.887151992 6.559620938 33.966768944
465 2 7.574851494 4.373605416 30.2002
466 2 11.36205 6.559620938 30.2002
467 2 7.574851494 4.373605416 36.49996172
468 2 11.36205 6.559620938 36.49996172
469 2 8.836948008 6.559620938 44.033703612
470 2 12.624600996 4.373605416 44.033703612
471 2 10.099499004 4.373605416 40.267134668
472 2 13.887151992 6.559620938 40.267134668
473 2 10.099499004 4.373605416 46.566896388
474 2 13.887151992 6.559620938 46.566896388
475 2 7.574851494 4.373605416 54.10063828
476 2 11.36205 6.559620938 54.10063828
477 2 8.836948008 6.559620938 50.333465332
478 2 12.624600996 4.373605416 50.333465332
479 2 8.836948008 6.559620938 56.633831056
480 2 12.624600996 4.373605416 56.633831056
481 1 16.411799502 6.559620938 2.025829416
482 1 20.198998008 4.373605416 2.025829416
483 1 16.411799502 6.559620938 8.041105252
484 1 20.198998008 4.373605416 8.041105252
485 1 15.149248506 4.373605416 12.09216008
486 1 18.936901494 6.559620938 12.09216008
487 1 15.149248506 4.373605416 18.10803992
488 1 18.936901494 6.559620938 18.10803992
489 1 17.674350498 4.373605416 22.159094748
490 1 21.461549004 6.559620938 22.159094748
491 1 17.674350498 4.373605416 28.174370584
492 1 21.461549004 6.559620938 28.174370584
493 2 17.674350498 4.373605416 3.766568944
494 2 21.461549004 6.559620938 3.766568944
495 2 15.149248506 4.373605416 0.0
496 2 18.936901494 6.559620938 0.0
497 2 15.149248506 4.373605416 6.29976172
498 2 18.936901494 6.559620938 6.29976172
499 2 16.411799502 6.559620938 13.833503612
500 2 20.198998008 4.373605416 13.833503612
501 2 17.674350498 4.373605416 10.066934668
502 2 21.461549004 6.559620938 10.066934668
503 2 17.674350498 4.373605416 16.366696388
504 2 21.461549004 6.559620938 16.366696388
505 2 15.149248506 4.373605416 23.90043828
506 2 18.936901494 6.559620938 23.90043828
507 2 16.411799502 6.559620938 20.133265332
508 2 20.198998008 4.373605416 20.133265332
509 2 16.411799502 6.559620938 26.433631056
510 2 20.198998008 4.373605416 26.433631056
511 1 16.411799502 6.559620938 32.226029416
512 1 20.198998008 4.373605416 32.226029416
513 1 16.411799502 6.559620938 38.241305252
514 1 20.198998008 4.373605416 38.241305252
515 1 15.149248506 4.373605416 42.29236008
516 1 18.936901494 6.559620938 42.29236008
517 1 15.149248506 4.373605416 48.30823992
518 1 18.936901494 6.559620938 48.30823992
519 1 17.674350498 4.373605416 52.359294748
520 1 21.461549004 6.559620938 52.359294748
521 1 17.674350498 4.373605416 58.374570584
522 1 21.461549004 6.559620938 58.374570584
523 2 17.674350498 4.373605416 33.966768944
524 2 21.461549004 6.559620938 33.966768944
525 2 15.149248506 4.373605416 30.2002
526 2 18.936901494 6.559620938 30.2002
527 2 15.149248506 4.373605416 36.49996172
528 2 18.936901494 6.559620938 36.49996172
529 2 16.411799502 6.559620938 44.033703612
530 2 20.198998008 4.373605416 44.033703612
531 2 17.674350498 4.373605416 40.267134668
532 2 21.461549004 6.559620938 40.267134668
533 2 17.674350498 4.373605416 46.566896388
534 2 21.461549004 6.559620938 46.566896388
535 2 15.149248506 4.373605416 54.10063828
536 2 18.936901494 6.559620938 54.10063828
537 2 16.411799502 6.559620938 50.333465332
538 2 20.198998008 4.373605416 50.333465332
539 2 16.411799502 6.559620938 56.633831056
540 2 20.198998008 4.373605416 56.633831056
541 1 23.986650996 6.559620938 2.025829416
542 1 27.773849502 4.373605416 2.025829416
543 1 23.986650996 6.559620938 8.041105252
544 1 27.773849502 4.373605416 8.041105252
545 1 22.7241 4.373605416 12.09216008
546 1 26.511298506 6.559620938 12.09216008
547 1 22.7241 4.373605416 18.10803992
548 1 26.511298506 6.559620938 18.10803992
549 1 25.249201992 4.373605416 22.159094748
550 1 29.036400498 6.559620938 22.159094748
551 1 25.249201992 4.373605416 28.174370584
552 1 29.036400498 6.559620938 28.174370584
553 2 25.249201992 4.373605416 3.766568944
554 2 29.036400498 6.559620938 3.766568944
555 2 22.7241 4.373605416 0.0
556 2 26.511298506 6.559620938 0.0
557 2 22.7241 4.373605416 6.29976172
558 2 26.511298506 6.559620938 6.29976172
559 2 23.986650996 6.559620938 13.833503612
560 2 27.773849502 4.373605416 13.833503612
561 2 25.249201992 4.373605416 10.066934668
562 2 29.036400498 6.559620938 10.066934668
563 2 25.249201992 4.373605416 16.366696388
564 2 29.036400498 6.559620938 16.366696388
565 2 22.7241 4.373605416 23.90043828
566 2 26.511298506 6.559620938 23.90043828
567 2 23.986650996 6.559620938 20.133265332
568 2 27.773849502 4.373605416 20.133265332
569 2 23.986650996 6.559620938 26.433631056
570 2 27.773849502 4.373605416 26.433631056
571 1 23.986650996 6.559620938 32.226029416
572 1 27.773849502 4.373605416 32.226029416
573 1 23.986650996 6.559620938 38.241305252
574 1 27.773849502 4.373605416 38.241305252
575 1 22.7241 4.373605416 42.29236008
576 1 26.511298506 6.559620938 42.29236008
577 1 22.7241 4.373605416 48.30823992
578 1 26.511298506 6.559620938 48.30823992
579 1 25.249201992 4.373605416 52.359294748
580 1 29.036400498 6.559620938 52.359294748
581 1 25.249201992 4.373605416 58.374570584
582 1 29.036400498 6.559620938 58.374570584
583 2 25.249201992 4.373605416 33.966768944
584 2 29.036400498 6.559620938 33.966768944
585 2 22.7241 4.373605416 30.2002
586 2 26.511298506 6.559620938 30.2002
587 2 22.7241 4.373605416 36.49996172
588 2 26.511298506 6.559620938 36.49996172
589 2 23.986650996 6.559620938 44.033703612
590 2 27.773849502 4.373605416 44.033703612
591 2 25.249201992 4.373605416 40.267134668
592 2 29.036400498 6.559620938 40.267134668
593 2 25.249201992 4.373605416 46.566896388
594 2 29.036400498 6.559620938 46.566896388
595 2 22.7241 4.373605416 54.10063828
596 2 26.511298506 6.559620938 54.10063828
597 2 23.986650996 6.559620938 50.333465332
598 2 27.773849502 4.373605416 50.333465332
599 2 23.986650996 6.559620938 56.633831056
600 2 27.773849502 4.373605416 56.633831056
601 1 31.561048008 6.559620938 2.025829416
602 1 35.348700996 4.373605416 2.025829416
603 1 31.561048008 6.559620938 8.041105252
604 1 35.348700996 4.373605416 8.041105252
605 1 30.298951494 4.373605416 12.09216008
606 1 34.08615 6.559620938 12.09216008
607 1 30.298951494 4.373605416 18.10803992
608 1 34.08615 6.559620938 18.10803992
609 1 32.823599004 4.373605416 22.159094748
610 1 36.611251992 6.559620938 22.159094748
611 1 32.823599004 4.373605416 28.174370584
612 1 36.611251992 6.559620938 28.174370584
613 2 32.823599004 4.373605416 3.766568944
614 2 36.611251992 6.559620938 3.766568944
615 2 30.298951494 4.373605416 0.0
616 2 34.08615 6.559620938 0.0
617 2 30.298951494 4.373605416 6.29976172
618 2 34.08615 6.559620938 6.29976172
619 2 31.561048008 6.559620938 13.833503612
620 2 35.348700996 4.373605416 13.833503612
621 2 32.823599004 4.373605416 10.066934668
622 2 36.611251992 6.559620938 10.066934668
623 2 32.823599004 4.373605416 16.366696388
624 2 36.611251992 6.559620938 16.366696388
625 2 30.298951494 4.373605416 23.90043828
626 2 34.08615 6.559620938 23.90043828
627 2 31.561048008 6.559620938 20.133265332
628 2 35.348700996 4.373605416 20.133265332
629 2 31.561048008 6.559620938 26.433631056
630 2 35.348700996 4.373605416 26.433631056
631 1 31.561048008 6.559620938 32.226029416
632 1 35.348700996 4.373605416 32.226029416
633 1 31.561048008 6.559620938 38.241305252
634 1 35.348700996 4.373605416 38.241305252
635 1 30.298951494 4.373605416 42.29236008
636 1 34.08615 6.559620938 42.29236008
637 1 30.298951494 4.373605416 48.30823992
638 1 34.08615 6.559620938 48.30823992
639 1 32.823599004 4.373605416 52.359294748
640 1 36.611251992 6.559620938 52.359294748
641 1 32.823599004 4.373605416 58.374570584
642 1 36.611251992 6.559620938 58.374570584
643 2 32.823599004 4.373605416 33.966768944
644 2 36.611251992 6.559620938 33.966768944
645 2 30.298951494 4.373605416 30.2002
646 2 34.08615 6.559620938 30.2002
647 2 30.298951494 4.373605416 36.49996172
648 2 34.08615 6.559620938 36.49996172
649 2 31.561048008 6.559620938 44.033703612
650 2 35.348700996 4.373605416 44.033703612
651 2 32.823599004 4.373605416 40.267134668
652 2 36.611251992 6.559620938 40.267134668
653 2 32.823599004 4.373605416 46.566896388
654 2 36.611251992 6.559620938 46.566896388
655 2 30.298951494 4.373605416 54.10063828
656 2 34.08615 6.559620938 54.10063828
657 2 31.561048008 6.559620938 50.333465332
658 2 35.348700996 4.373605416 50.333465332
659 2 31.561048008 6.559620938 56.633831056
660 2 35.348700996 4.373605416 56.633831056
661 1 39.135899502 6.559620938 2.025829416
662 1 42.923098008 4.373605416 2.025829416
663 1 39.135899502 6.559620938 8.041105252
664 1 42.923098008 4.373605416 8.041105252
665 1 37.873348506 4.373605416 12.09216008
666 1 41.661001494 6.559620938 12.09216008
667 1 37.873348506 4.373605416 18.10803992
668 1 41.661001494 6.559620938 18.10803992
669 1 40.398450498 4.373605416 22.159094748
670 1 44.185649004 6.559620938 22.159094748
671 1 40.398450498 4.373605416 28.174370584
672 1 44.185649004 6.559620938 28.174370584
673 2 40.398450498 4.373605416 3.766568944
674 2 44.185649004 6.559620938 3.766568944
675 2 37.873348506 4.373605416 0.0
676 2 41.661001494 6.559620938 0.0
677 2 37.873348506 4.373605416 6.29976172
678 2 41.661001494 6.559620938 6.29976172
679 2 39.135899502 6.559620938 13.833503612
680 2 42.923098008 4.373605416 13.833503612
681 2 40.398450498 4.373605416 10.066934668
682 2 44.185649004 6.559620938 10.066934668
683 2 40.398450498 4.373605416 16.366696388
684 2 44.185649004 6.559620938 16.366696388
685 2 37.873348506 4.373605416 23.90043828
686 2 41.661001494 6.559620938 23.90043828
687 2 39.135899502 6.559620938 20.133265332
688 2 42.923098008 4.373605416 20.133265332
689 2 39.135899502 6.559620938 26.433631056
690 2 42.923098008 4.373605416 26.433631056
691 1 39.135899502 6.559620938 32.226029416
692 1 42.923098008 4.373605416 32.226029416
693 1 39.135899502 6.559620938 38.241305252
694 1 42.923098008 4.373605416 38.241305252
695 1 37.873348506 4.373605416 42.29236008
696 1 41.661001494 6.559620938 42.29236008
697 1 37.873348506 4.373605416 48.30823992
698 1 41.661001494 6.559620938 48.30823992
699 1 40.398450498 4.373605416 52.359294748
700 1 44.185649004 6.559620938 52.359294748
701 1 40.398450498 4.373605416 58.374570584
702 1 44.185649004 6.559620938 58.374570584
703 2 40.398450498 4.373605416 33.966768944
704 2 44.185649004 6.559620938 33.966768944
705 2 37.873348506 4.373605416 30.2002
706 2 41.661001494 6.559620938 30.2002
707 2 37.873348506 4.373605416 36.49996172
708 2 41.661001494 6.559620938 36.49996172
709 2 39.135899502 6.559620938 44.033703612
710 2 42.923098008 4.373605416 44.033703612
711 2 40.398450498 4.373605416 40.267134668
712 2 44.185649004 6.559620938 40.267134668
713 2 40.398450498 4.373605416 46.566896388
714 2 44.185649004 6.559620938 46.566896388
715 2 37.873348506 4.373605416 54.10063828
716 2 41.661001494 6.559620938 54.10063828
717 2 39.135899502 6.559620938 50.333465332
718 2 42.923098008 4.373605416 50.333465332
719 2 39.135899502 6.559620938 56.633831056
720 2 42.923098008 4.373605416 56.633831056
721 1 1.262550996 10.933226354 2.025829416
722 1 5.049749502 8.746423646 2.025829416
723 1 1.262550996 10.933226354 8.041105252