
15 atoms
2 atom types
   0.0000000000    4.4022152997 xlo xhi
   0.0000000000    3.8124302820 ylo yhi
   0.0000000000   30.4002231370 zlo zhi
  -2.2011082300   -0.0000000001   -0.0000000001 xy xz yz

Atoms # atomic

     1      1   -0.0000025878    2.5416214588    2.0390797668
     2      1   -0.0000025878    2.5416214588    8.0943330122
     3      1    0.0000000161    0.0000000377   12.1724925458
     4      1    0.0000000246    0.0000000328   18.2277305911
     5      1    2.2011096575    1.2708088231   22.3058901247
     6      1    2.2011096575    1.2708088230   28.3611585703
     7      2    2.2011096576    1.2708088232    3.7917590314
     8      2    0.0000000248    0.0000000429    0.0000001934
     9      2    0.0000000166    0.0000000392    6.3416385474
    10      2   -0.0000025879    2.5416214587   13.9251870106
    11      2    2.2011096575    1.2708088231   10.1333975789
    12      2    2.2011096575    1.2708088231   16.4750361264
    13      2    0.0000000255    0.0000000339   24.0585845895
    14      2   -0.0000025879    2.5416214587   20.2668255580
    15      2   -0.0000025879    2.5416214587   26.6084641055
