# LAMMPS data file written by OVITO Basic 3.11.0

6000 atoms
2 atom types

0.0 75.7469 xlo xhi
0.0 43.7325 ylo yhi
0.0 60.4004 zlo zhi

Masses

1 208.98038  # Bi
2 127.6  # Te

Atoms  # atomic

1 1 1.262700823 2.186625 2.025829416
2 1 39.136150823 24.052875 2.025829416
3 1 1.262700823 2.186625 8.041105252
4 1 39.136150823 24.052875 8.041105252
5 1 0.0 0.0 12.09216008
6 1 37.87345 21.86625 12.09216008
7 1 0.0 0.0 18.10803992
8 1 37.87345 21.86625 18.10803992
9 1 2.524644177 0.0 22.159094748
10 1 40.398094177 21.86625 22.159094748
11 1 2.524644177 0.0 28.174370584
12 1 40.398094177 21.86625 28.174370584
13 2 2.524644177 0.0 3.766568944
14 2 40.398094177 21.86625 3.766568944
15 2 0.0 0.0 0.0
16 2 37.87345 21.86625 0.0
17 2 0.0 0.0 6.29976172
18 2 37.87345 21.86625 6.29976172
19 2 1.262700823 2.186625 13.833503612
20 2 39.136150823 24.052875 13.833503612
21 2 2.524644177 0.0 10.066934668
22 2 40.398094177 21.86625 10.066934668
23 2 2.524644177 0.0 16.366696388
24 2 40.398094177 21.86625 16.366696388
25 2 0.0 0.0 23.90043828
26 2 37.87345 21.86625 23.90043828
27 2 1.262700823 2.186625 20.133265332
28 2 39.136150823 24.052875 20.133265332
29 2 1.262700823 2.186625 26.433631056
30 2 39.136150823 24.052875 26.433631056
31 1 5.050045823 0.0 2.025829416
32 1 42.923495823 21.86625 2.025829416
33 1 5.050045823 0.0 8.041105252
34 1 42.923495823 21.86625 8.041105252
35 1 3.787345 41.545875 12.09216008
36 1 41.660795 19.679625 12.09216008
37 1 3.787345 41.545875 18.10803992
38 1 41.660795 19.679625 18.10803992
39 1 6.311989177 41.545875 22.159094748
40 1 44.185439177 19.679625 22.159094748
41 1 6.311989177 41.545875 28.174370584
42 1 44.185439177 19.679625 28.174370584
43 2 6.311989177 41.545875 3.766568944
44 2 44.185439177 19.679625 3.766568944
45 2 3.787345 41.545875 0.0
46 2 41.660795 19.679625 0.0
47 2 3.787345 41.545875 6.29976172
48 2 41.660795 19.679625 6.29976172
49 2 5.050045823 0.0 13.833503612
50 2 42.923495823 21.86625 13.833503612
51 2 6.311989177 41.545875 10.066934668
52 2 44.185439177 19.679625 10.066934668
53 2 6.311989177 41.545875 16.366696388
54 2 44.185439177 19.679625 16.366696388
55 2 3.787345 41.545875 23.90043828
56 2 41.660795 19.679625 23.90043828
57 2 5.050045823 0.0 20.133265332
58 2 42.923495823 21.86625 20.133265332
59 2 5.050045823 0.0 26.433631056
60 2 42.923495823 21.86625 26.433631056
61 1 8.837390823 41.545875 2.025829416
62 1 46.710840823 19.679625 2.025829416
63 1 8.837390823 41.545875 8.041105252
64 1 46.710840823 19.679625 8.041105252
65 1 7.57469 39.35925 12.09216008
66 1 45.44814 17.493 12.09216008
67 1 7.57469 39.35925 18.10803992
68 1 45.44814 17.493 18.10803992
69 1 10.099334177 39.35925 22.159094748
70 1 47.972784177 17.493 22.159094748
71 1 10.099334177 39.35925 28.174370584
72 1 47.972784177 17.493 28.174370584
73 2 10.099334177 39.35925 3.766568944
74 2 47.972784177 17.493 3.766568944
75 2 7.57469 39.35925 0.0
76 2 45.44814 17.493 0.0
77 2 7.57469 39.35925 6.29976172
78 2 45.44814 17.493 6.29976172
79 2 8.837390823 41.545875 13.833503612
80 2 46.710840823 19.679625 13.833503612
81 2 10.099334177 39.35925 10.066934668
82 2 47.972784177 17.493 10.066934668
83 2 10.099334177 39.35925 16.366696388
84 2 47.972784177 17.493 16.366696388
85 2 7.57469 39.35925 23.90043828
86 2 45.44814 17.493 23.90043828
87 2 8.837390823 41.545875 20.133265332
88 2 46.710840823 19.679625 20.133265332
89 2 8.837390823 41.545875 26.433631056
90 2 46.710840823 19.679625 26.433631056
91 1 12.624735823 39.35925 2.025829416
92 1 50.498185823 17.493 2.025829416
93 1 12.624735823 39.35925 8.041105252
94 1 50.498185823 17.493 8.041105252
95 1 11.362035 37.172625 12.09216008
96 1 49.235485 15.306375 12.09216008
97 1 11.362035 37.172625 18.10803992
98 1 49.235485 15.306375 18.10803992
99 1 13.886679177 37.172625 22.159094748
100 1 51.760129177 15.306375 22.159094748
101 1 13.886679177 37.172625 28.174370584
102 1 51.760129177 15.306375 28.174370584
103 2 13.886679177 37.172625 3.766568944
104 2 51.760129177 15.306375 3.766568944
105 2 11.362035 37.172625 0.0
106 2 49.235485 15.306375 0.0
107 2 11.362035 37.172625 6.29976172
108 2 49.235485 15.306375 6.29976172
109 2 12.624735823 39.35925 13.833503612
110 2 50.498185823 17.493 13.833503612
111 2 13.886679177 37.172625 10.066934668
112 2 51.760129177 15.306375 10.066934668
113 2 13.886679177 37.172625 16.366696388
114 2 51.760129177 15.306375 16.366696388
115 2 11.362035 37.172625 23.90043828
116 2 49.235485 15.306375 23.90043828
117 2 12.624735823 39.35925 20.133265332
118 2 50.498185823 17.493 20.133265332
119 2 12.624735823 39.35925 26.433631056
120 2 50.498185823 17.493 26.433631056
121 1 16.412080823 37.172625 2.025829416
122 1 54.285530823 15.306375 2.025829416
123 1 16.412080823 37.172625 8.041105252
124 1 54.285530823 15.306375 8.041105252
125 1 15.14938 34.986 12.09216008
126 1 53.02283 13.11975 12.09216008
127 1 15.14938 34.986 18.10803992
128 1 53.02283 13.11975 18.10803992
129 1 17.674024177 34.986 22.159094748
130 1 55.547474177 13.11975 22.159094748
131 1 17.674024177 34.986 28.174370584
132 1 55.547474177 13.11975 28.174370584
133 2 17.674024177 34.986 3.766568944
134 2 55.547474177 13.11975 3.766568944
135 2 15.14938 34.986 0.0
136 2 53.02283 13.11975 0.0
137 2 15.14938 34.986 6.29976172
138 2 53.02283 13.11975 6.29976172
139 2 16.412080823 37.172625 13.833503612
140 2 54.285530823 15.306375 13.833503612
141 2 17.674024177 34.986 10.066934668
142 2 55.547474177 13.11975 10.066934668
143 2 17.674024177 34.986 16.366696388
144 2 55.547474177 13.11975 16.366696388
145 2 15.14938 34.986 23.90043828
146 2 53.02283 13.11975 23.90043828
147 2 16.412080823 37.172625 20.133265332
148 2 54.285530823 15.306375 20.133265332
149 2 16.412080823 37.172625 26.433631056
150 2 54.285530823 15.306375 26.433631056
151 1 1.262700823 6.559875 2.025829416
152 1 39.136150823 28.426125 2.025829416
153 1 1.262700823 6.559875 8.041105252
154 1 39.136150823 28.426125 8.041105252
155 1 0.0 4.37325 12.09216008
156 1 37.87345 26.2395 12.09216008
157 1 0.0 4.37325 18.10803992
158 1 37.87345 26.2395 18.10803992
159 1 2.524644177 4.37325 22.159094748
160 1 40.398094177 26.2395 22.159094748
161 1 2.524644177 4.37325 28.174370584
162 1 40.398094177 26.2395 28.174370584
163 2 2.524644177 4.37325 3.766568944
164 2 40.398094177 26.2395 3.766568944
165 2 0.0 4.37325 0.0
166 2 37.87345 26.2395 0.0
167 2 0.0 4.37325 6.29976172
168 2 37.87345 26.2395 6.29976172
169 2 1.262700823 6.559875 13.833503612
170 2 39.136150823 28.426125 13.833503612
171 2 2.524644177 4.37325 10.066934668
172 2 40.398094177 26.2395 10.066934668
173 2 2.524644177 4.37325 16.366696388
174 2 40.398094177 26.2395 16.366696388
175 2 0.0 4.37325 23.90043828
176 2 37.87345 26.2395 23.90043828
177 2 1.262700823 6.559875 20.133265332
178 2 39.136150823 28.426125 20.133265332
179 2 1.262700823 6.559875 26.433631056
180 2 39.136150823 28.426125 26.433631056
181 1 5.050045823 4.37325 2.025829416
182 1 42.923495823 26.2395 2.025829416
183 1 5.050045823 4.37325 8.041105252
184 1 42.923495823 26.2395 8.041105252
185 1 3.787345 2.186625 12.09216008
186 1 41.660795 24.052875 12.09216008
187 1 3.787345 2.186625 18.10803992
188 1 41.660795 24.052875 18.10803992
189 1 6.311989177 2.186625 22.159094748
190 1 44.185439177 24.052875 22.159094748
191 1 6.311989177 2.186625 28.174370584
192 1 44.185439177 24.052875 28.174370584
193 2 6.311989177 2.186625 3.766568944
194 2 44.185439177 24.052875 3.766568944
195 2 3.787345 2.186625 0.0
196 2 41.660795 24.052875 0.0
197 2 3.787345 2.186625 6.29976172
198 2 41.660795 24.052875 6.29976172
199 2 5.050045823 4.37325 13.833503612
200 2 42.923495823 26.2395 13.833503612
201 2 6.311989177 2.186625 10.066934668
202 2 44.185439177 24.052875 10.066934668
203 2 6.311989177 2.186625 16.366696388
204 2 44.185439177 24.052875 16.366696388
205 2 3.787345 2.186625 23.90043828
206 2 41.660795 24.052875 23.90043828
207 2 5.050045823 4.37325 20.133265332
208 2 42.923495823 26.2395 20.133265332
209 2 5.050045823 4.37325 26.433631056
210 2 42.923495823 26.2395 26.433631056
211 1 8.837390823 2.186625 2.025829416
212 1 46.710840823 24.052875 2.025829416
213 1 8.837390823 2.186625 8.041105252
214 1 46.710840823 24.052875 8.041105252
215 1 7.57469 0.0 12.09216008
216 1 45.44814 21.86625 12.09216008
217 1 7.57469 0.0 18.10803992
218 1 45.44814 21.86625 18.10803992
219 1 10.099334177 0.0 22.159094748
220 1 47.972784177 21.86625 22.159094748
221 1 10.099334177 0.0 28.174370584
222 1 47.972784177 21.86625 28.174370584
223 2 10.099334177 0.0 3.766568944
224 2 47.972784177 21.86625 3.766568944
225 2 7.57469 0.0 0.0
226 2 45.44814 21.86625 0.0
227 2 7.57469 0.0 6.29976172
228 2 45.44814 21.86625 6.29976172
229 2 8.837390823 2.186625 13.833503612
230 2 46.710840823 24.052875 13.833503612
231 2 10.099334177 0.0 10.066934668
232 2 47.972784177 21.86625 10.066934668
233 2 10.099334177 0.0 16.366696388
234 2 47.972784177 21.86625 16.366696388
235 2 7.57469 0.0 23.90043828
236 2 45.44814 21.86625 23.90043828
237 2 8.837390823 2.186625 20.133265332
238 2 46.710840823 24.052875 20.133265332
239 2 8.837390823 2.186625 26.433631056
240 2 46.710840823 24.052875 26.433631056
241 1 12.624735823 0.0 2.025829416
242 1 50.498185823 21.86625 2.025829416
243 1 12.624735823 0.0 8.041105252
244 1 50.498185823 21.86625 8.041105252
245 1 11.362035 41.545875 12.09216008
246 1 49.235485 19.679625 12.09216008
247 1 11.362035 41.545875 18.10803992
248 1 49.235485 19.679625 18.10803992
249 1 13.886679177 41.545875 22.159094748
250 1 51.760129177 19.679625 22.159094748
251 1 13.886679177 41.545875 28.174370584
252 1 51.760129177 19.679625 28.174370584
253 2 13.886679177 41.545875 3.766568944
254 2 51.760129177 19.679625 3.766568944
255 2 11.362035 41.545875 0.0
256 2 49.235485 19.679625 0.0
257 2 11.362035 41.545875 6.29976172
258 2 49.235485 19.679625 6.29976172
259 2 12.624735823 0.0 13.833503612
260 2 50.498185823 21.86625 13.833503612
261 2 13.886679177 41.545875 10.066934668
262 2 51.760129177 19.679625 10.066934668
263 2 13.886679177 41.545875 16.366696388
264 2 51.760129177 19.679625 16.366696388
265 2 11.362035 41.545875 23.90043828
266 2 49.235485 19.679625 23.90043828
267 2 12.624735823 0.0 20.133265332
268 2 50.498185823 21.86625 20.133265332
269 2 12.624735823 0.0 26.433631056
270 2 50.498185823 21.86625 26.433631056
271 1 16.412080823 41.545875 2.025829416
272 1 54.285530823 19.679625 2.025829416
273 1 16.412080823 41.545875 8.041105252
274 1 54.285530823 19.679625 8.041105252
275 1 15.14938 39.35925 12.09216008
276 1 53.02283 17.493 12.09216008
277 1 15.14938 39.35925 18.10803992
278 1 53.02283 17.493 18.10803992
279 1 17.674024177 39.35925 22.159094748
280 1 55.547474177 17.493 22.159094748
281 1 17.674024177 39.35925 28.174370584
282 1 55.547474177 17.493 28.174370584
283 2 17.674024177 39.35925 3.766568944
284 2 55.547474177 17.493 3.766568944
285 2 15.14938 39.35925 0.0
286 2 53.02283 17.493 0.0
287 2 15.14938 39.35925 6.29976172
288 2 53.02283 17.493 6.29976172
289 2 16.412080823 41.545875 13.833503612
290 2 54.285530823 19.679625 13.833503612
291 2 17.674024177 39.35925 10.066934668
292 2 55.547474177 17.493 10.066934668
293 2 17.674024177 39.35925 16.366696388
294 2 55.547474177 17.493 16.366696388
295 2 15.14938 39.35925 23.90043828
296 2 53.02283 17.493 23.90043828
297 2 16.412080823 41.545875 20.133265332
298 2 54.285530823 19.679625 20.133265332
299 2 16.412080823 41.545875 26.433631056
300 2 54.285530823 19.679625 26.433631056
301 1 1.262700823 10.933125 2.025829416
302 1 39.136150823 32.799375 2.025829416
303 1 1.262700823 10.933125 8.041105252
304 1 39.136150823 32.799375 8.041105252
305 1 0.0 8.7465 12.09216008
306 1 37.87345 30.61275 12.09216008
307 1 0.0 8.7465 18.10803992
308 1 37.87345 30.61275 18.10803992
309 1 2.524644177 8.7465 22.159094748
310 1 40.398094177 30.61275 22.159094748
311 1 2.524644177 8.7465 28.174370584
312 1 40.398094177 30.61275 28.174370584
313 2 2.524644177 8.7465 3.766568944
314 2 40.398094177 30.61275 3.766568944
315 2 0.0 8.7465 0.0
316 2 37.87345 30.61275 0.0
317 2 0.0 8.7465 6.29976172
318 2 37.87345 30.61275 6.29976172
319 2 1.262700823 10.933125 13.833503612
320 2 39.136150823 32.799375 13.833503612
321 2 2.524644177 8.7465 10.066934668
322 2 40.398094177 30.61275 10.066934668
323 2 2.524644177 8.7465 16.366696388
324 2 40.398094177 30.61275 16.366696388
325 2 0.0 8.7465 23.90043828
326 2 37.87345 30.61275 23.90043828
327 2 1.262700823 10.933125 20.133265332
328 2 39.136150823 32.799375 20.133265332
329 2 1.262700823 10.933125 26.433631056
330 2 39.136150823 32.799375 26.433631056
331 1 5.050045823 8.7465 2.025829416
332 1 42.923495823 30.61275 2.025829416
333 1 5.050045823 8.7465 8.041105252
334 1 42.923495823 30.61275 8.041105252
335 1 3.787345 6.559875 12.09216008
336 1 41.660795 28.426125 12.09216008
337 1 3.787345 6.559875 18.10803992
338 1 41.660795 28.426125 18.10803992
339 1 6.311989177 6.559875 22.159094748
340 1 44.185439177 28.426125 22.159094748
341 1 6.311989177 6.559875 28.174370584
342 1 44.185439177 28.426125 28.174370584
343 2 6.311989177 6.559875 3.766568944
344 2 44.185439177 28.426125 3.766568944
345 2 3.787345 6.559875 0.0
346 2 41.660795 28.426125 0.0
347 2 3.787345 6.559875 6.29976172
348 2 41.660795 28.426125 6.29976172
349 2 5.050045823 8.7465 13.833503612
350 2 42.923495823 30.61275 13.833503612
351 2 6.311989177 6.559875 10.066934668
352 2 44.185439177 28.426125 10.066934668
353 2 6.311989177 6.559875 16.366696388
354 2 44.185439177 28.426125 16.366696388
355 2 3.787345 6.559875 23.90043828
356 2 41.660795 28.426125 23.90043828
357 2 5.050045823 8.7465 20.133265332
358 2 42.923495823 30.61275 20.133265332
359 2 5.050045823 8.7465 26.433631056
360 2 42.923495823 30.61275 26.433631056
361 1 8.837390823 6.559875 2.025829416
362 1 46.710840823 28.426125 2.025829416
363 1 8.837390823 6.559875 8.041105252
364 1 46.710840823 28.426125 8.041105252
365 1 7.57469 4.37325 12.09216008
366 1 45.44814 26.2395 12.09216008
367 1 7.57469 4.37325 18.10803992
368 1 45.44814 26.2395 18.10803992
369 1 10.099334177 4.37325 22.159094748
370 1 47.972784177 26.2395 22.159094748
371 1 10.099334177 4.37325 28.174370584
372 1 47.972784177 26.2395 28.174370584
373 2 10.099334177 4.37325 3.766568944
374 2 47.972784177 26.2395 3.766568944
375 2 7.57469 4.37325 0.0
376 2 45.44814 26.2395 0.0
377 2 7.57469 4.37325 6.29976172
378 2 45.44814 26.2395 6.29976172
379 2 8.837390823 6.559875 13.833503612
380 2 46.710840823 28.426125 13.833503612
381 2 10.099334177 4.37325 10.066934668
382 2 47.972784177 26.2395 10.066934668
383 2 10.099334177 4.37325 16.366696388
384 2 47.972784177 26.2395 16.366696388
385 2 7.57469 4.37325 23.90043828
386 2 45.44814 26.2395 23.90043828
387 2 8.837390823 6.559875 20.133265332
388 2 46.710840823 28.426125 20.133265332
389 2 8.837390823 6.559875 26.433631056
390 2 46.710840823 28.426125 26.433631056
391 1 12.624735823 4.37325 2.025829416
392 1 50.498185823 26.2395 2.025829416
393 1 12.624735823 4.37325 8.041105252
394 1 50.498185823 26.2395 8.041105252
395 1 11.362035 2.186625 12.09216008
396 1 49.235485 24.052875 12.09216008
397 1 11.362035 2.186625 18.10803992
398 1 49.235485 24.052875 18.10803992
399 1 13.886679177 2.186625 22.159094748
400 1 51.760129177 24.052875 22.159094748
401 1 13.886679177 2.186625 28.174370584
402 1 51.760129177 24.052875 28.174370584
403 2 13.886679177 2.186625 3.766568944
404 2 51.760129177 24.052875 3.766568944
405 2 11.362035 2.186625 0.0
406 2 49.235485 24.052875 0.0
407 2 11.362035 2.186625 6.29976172
408 2 49.235485 24.052875 6.29976172
409 2 12.624735823 4.37325 13.833503612
410 2 50.498185823 26.2395 13.833503612
411 2 13.886679177 2.186625 10.066934668
412 2 51.760129177 24.052875 10.066934668
413 2 13.886679177 2.186625 16.366696388
414 2 51.760129177 24.052875 16.366696388
415 2 11.362035 2.186625 23.90043828
416 2 49.235485 24.052875 23.90043828
417 2 12.624735823 4.37325 20.133265332
418 2 50.498185823 26.2395 20.133265332
419 2 12.624735823 4.37325 26.433631056
420 2 50.498185823 26.2395 26.433631056
421 1 16.412080823 2.186625 2.025829416
422 1 54.285530823 24.052875 2.025829416
423 1 16.412080823 2.186625 8.041105252
424 1 54.285530823 24.052875 8.041105252
425 1 15.14938 0.0 12.09216008
426 1 53.02283 21.86625 12.09216008
427 1 15.14938 0.0 18.10803992
428 1 53.02283 21.86625 18.10803992
429 1 17.674024177 0.0 22.159094748
430 1 55.547474177 21.86625 22.159094748
431 1 17.674024177 0.0 28.174370584
432 1 55.547474177 21.86625 28.174370584
433 2 17.674024177 0.0 3.766568944
434 2 55.547474177 21.86625 3.766568944
435 2 15.14938 0.0 0.0
436 2 53.02283 21.86625 0.0
437 2 15.14938 0.0 6.29976172
438 2 53.02283 21.86625 6.29976172
439 2 16.412080823 2.186625 13.833503612
440 2 54.285530823 24.052875 13.833503612
441 2 17.674024177 0.0 10.066934668
442 2 55.547474177 21.86625 10.066934668
443 2 17.674024177 0.0 16.366696388
444 2 55.547474177 21.86625 16.366696388
445 2 15.14938 0.0 23.90043828
446 2 53.02283 21.86625 23.90043828
447 2 16.412080823 2.186625 20.133265332
448 2 54.285530823 24.052875 20.133265332
449 2 16.412080823 2.186625 26.433631056
450 2 54.285530823 24.052875 26.433631056
451 1 1.262700823 15.306375 2.025829416
452 1 39.136150823 37.172625 2.025829416
453 1 1.262700823 15.306375 8.041105252
454 1 39.136150823 37.172625 8.041105252
455 1 0.0 13.11975 12.09216008
456 1 37.87345 34.986 12.09216008
457 1 0.0 13.11975 18.10803992
458 1 37.87345 34.986 18.10803992
459 1 2.524644177 13.11975 22.159094748
460 1 40.398094177 34.986 22.159094748
461 1 2.524644177 13.11975 28.174370584
462 1 40.398094177 34.986 28.174370584
463 2 2.524644177 13.11975 3.766568944
464 2 40.398094177 34.986 3.766568944
465 2 0.0 13.11975 0.0
466 2 37.87345 34.986 0.0
467 2 0.0 13.11975 6.29976172
468 2 37.87345 34.986 6.29976172
469 2 1.262700823 15.306375 13.833503612
470 2 39.136150823 37.172625 13.833503612
471 2 2.524644177 13.11975 10.066934668
472 2 40.398094177 34.986 10.066934668
473 2 2.524644177 13.11975 16.366696388
474 2 40.398094177 34.986 16.366696388
475 2 0.0 13.11975 23.90043828
476 2 37.87345 34.986 23.90043828
477 2 1.262700823 15.306375 20.133265332
478 2 39.136150823 37.172625 20.133265332
479 2 1.262700823 15.306375 26.433631056
480 2 39.136150823 37.172625 26.433631056
481 1 5.050045823 13.11975 2.025829416
482 1 42.923495823 34.986 2.025829416
483 1 5.050045823 13.11975 8.041105252
484 1 42.923495823 34.986 8.041105252
485 1 3.787345 10.933125 12.09216008
486 1 41.660795 32.799375 12.09216008
487 1 3.787345 10.933125 18.10803992
488 1 41.660795 32.799375 18.10803992
489 1 6.311989177 10.933125 22.159094748
490 1 44.185439177 32.799375 22.159094748
491 1 6.311989177 10.933125 28.174370584
492 1 44.185439177 32.799375 28.174370584
493 2 6.311989177 10.933125 3.766568944
494 2 44.185439177 32.799375 3.766568944
495 2 3.787345 10.933125 0.0
496 2 41.660795 32.799375 0.0
497 2 3.787345 10.933125 6.29976172
498 2 41.660795 32.799375 6.29976172
499 2 5.050045823 13.11975 13.833503612
500 2 42.923495823 34.986 13.833503612
501 2 6.311989177 10.933125 10.066934668
502 2 44.185439177 32.799375 10.066934668
503 2 6.311989177 10.933125 16.366696388
504 2 44.185439177 32.799375 16.366696388
505 2 3.787345 10.933125 23.90043828
506 2 41.660795 32.799375 23.90043828
507 2 5.050045823 13.11975 20.133265332
508 2 42.923495823 34.986 20.133265332
509 2 5.050045823 13.11975 26.433631056
510 2 42.923495823 34.986 26.433631056
511 1 8.837390823 10.933125 2.025829416
512 1 46.710840823 32.799375 2.025829416
513 1 8.837390823 10.933125 8.041105252
514 1 46.710840823 32.799375 8.041105252
515 1 7.57469 8.7465 12.09216008
516 1 45.44814 30.61275 12.09216008
517 1 7.57469 8.7465 18.10803992
518 1 45.44814 30.61275 18.10803992
519 1 10.099334177 8.7465 22.159094748
520 1 47.972784177 30.61275 22.159094748
521 1 10.099334177 8.7465 28.174370584
522 1 47.972784177 30.61275 28.174370584
523 2 10.099334177 8.7465 3.766568944
524 2 47.972784177 30.61275 3.766568944
525 2 7.57469 8.7465 0.0
526 2 45.44814 30.61275 0.0
527 2 7.57469 8.7465 6.29976172
528 2 45.44814 30.61275 6.29976172
529 2 8.837390823 10.933125 13.833503612
530 2 46.710840823 32.799375 13.833503612
531 2 10.099334177 8.7465 10.066934668
532 2 47.972784177 30.61275 10.066934668
533 2 10.099334177 8.7465 16.366696388
534 2 47.972784177 30.61275 16.366696388
535 2 7.57469 8.7465 23.90043828
536 2 45.44814 30.61275 23.90043828
537 2 8.837390823 10.933125 20.133265332
538 2 46.710840823 32.799375 20.133265332
539 2 8.837390823 10.933125 26.433631056
540 2 46.710840823 32.799375 26.433631056
541 1 12.624735823 8.7465 2.025829416
542 1 50.498185823 30.61275 2.025829416
543 1 12.624735823 8.7465 8.041105252
544 1 50.498185823 30.61275 8.041105252
545 1 11.362035 6.559875 12.09216008
546 1 49.235485 28.426125 12.09216008
547 1 11.362035 6.559875 18.10803992
548 1 49.235485 28.426125 18.10803992
549 1 13.886679177 6.559875 22.159094748
550 1 51.760129177 28.426125 22.159094748
551 1 13.886679177 6.559875 28.174370584
552 1 51.760129177 28.426125 28.174370584
553 2 13.886679177 6.559875 3.766568944
554 2 51.760129177 28.426125 3.766568944
555 2 11.362035 6.559875 0.0
556 2 49.235485 28.426125 0.0
557 2 11.362035 6.559875 6.29976172
558 2 49.235485 28.426125 6.29976172
559 2 12.624735823 8.7465 13.833503612
560 2 50.498185823 30.61275 13.833503612
561 2 13.886679177 6.559875 10.066934668
562 2 51.760129177 28.426125 10.066934668
563 2 13.886679177 6.559875 16.366696388
564 2 51.760129177 28.426125 16.366696388
565 2 11.362035 6.559875 23.90043828
566 2 49.235485 28.426125 23.90043828
567 2 12.624735823 8.7465 20.133265332
568 2 50.498185823 30.61275 20.133265332
569 2 12.624735823 8.7465 26.433631056
570 2 50.498185823 30.61275 26.433631056
571 1 16.412080823 6.559875 2.025829416
572 1 54.285530823 28.426125 2.025829416
573 1 16.412080823 6.559875 8.041105252
574 1 54.285530823 28.426125 8.041105252
575 1 15.14938 4.37325 12.09216008
576 1 53.02283 26.2395 12.09216008
577 1 15.14938 4.37325 18.10803992
578 1 53.02283 26.2395 18.10803992
579 1 17.674024177 4.37325 22.159094748
580 1 55.547474177 26.2395 22.159094748
581 1 17.674024177 4.37325 28.174370584
582 1 55.547474177 26.2395 28.174370584
583 2 17.674024177 4.37325 3.766568944
584 2 55.547474177 26.2395 3.766568944
585 2 15.14938 4.37325 0.0
586 2 53.02283 26.2395 0.0
587 2 15.14938 4.37325 6.29976172
588 2 53.02283 26.2395 6.29976172
589 2 16.412080823 6.559875 13.833503612
590 2 54.285530823 28.426125 13.833503612
591 2 17.674024177 4.37325 10.066934668
592 2 55.547474177 26.2395 10.066934668
593 2 17.674024177 4.37325 16.366696388
594 2 55.547474177 26.2395 16.366696388
595 2 15.14938 4.37325 23.90043828
596 2 53.02283 26.2395 23.90043828
597 2 16.412080823 6.559875 20.133265332
598 2 54.285530823 28.426125 20.133265332
599 2 16.412080823 6.559875 26.433631056
600 2 54.285530823 28.426125 26.433631056
601 1 1.262700823 19.679625 2.025829416
602 1 39.136150823 41.545875 2.025829416
603 1 1.262700823 19.679625 8.041105252
604 1 39.136150823 41.545875 8.041105252
605 1 0.0 17.493 12.09216008
606 1 37.87345 39.35925 12.09216008
607 1 0.0 17.493 18.10803992
608 1 37.87345 39.35925 18.10803992
609 1 2.524644177 17.493 22.159094748
610 1 40.398094177 39.35925 22.159094748
611 1 2.524644177 17.493 28.174370584
612 1 40.398094177 39.35925 28.174370584
613 2 2.524644177 17.493 3.766568944
614 2 40.398094177 39.35925 3.766568944
615 2 0.0 17.493 0.0
616 2 37.87345 39.35925 0.0
617 2 0.0 17.493 6.29976172
618 2 37.87345 39.35925 6.29976172
619 2 1.262700823 19.679625 13.833503612
620 2 39.136150823 41.545875 13.833503612
621 2 2.524644177 17.493 10.066934668
622 2 40.398094177 39.35925 10.066934668
623 2 2.524644177 17.493 16.366696388
624 2 40.398094177 39.35925 16.366696388
625 2 0.0 17.493 23.90043828
626 2 37.87345 39.35925 23.90043828
627 2 1.262700823 19.679625 20.133265332
628 2 39.136150823 41.545875 20.133265332
629 2 1.262700823 19.679625 26.433631056
630 2 39.136150823 41.545875 26.433631056
631 1 5.050045823 17.493 2.025829416
632 1 42.923495823 39.35925 2.025829416
633 1 5.050045823 17.493 8.041105252
634 1 42.923495823 39.35925 8.041105252
635 1 3.787345 15.306375 12.09216008
636 1 41.660795 37.172625 12.09216008
637 1 3.787345 15.306375 18.10803992
638 1 41.660795 37.172625 18.10803992
639 1 6.311989177 15.306375 22.159094748
640 1 44.185439177 37.172625 22.159094748
641 1 6.311989177 15.306375 28.174370584
642 1 44.185439177 37.172625 28.174370584
643 2 6.311989177 15.306375 3.766568944
644 2 44.185439177 37.172625 3.766568944
645 2 3.787345 15.306375 0.0
646 2 41.660795 37.172625 0.0
647 2 3.787345 15.306375 6.29976172
648 2 41.660795 37.172625 6.29976172
649 2 5.050045823 17.493 13.833503612
650 2 42.923495823 39.35925 13.833503612
651 2 6.311989177 15.306375 10.066934668
652 2 44.185439177 37.172625 10.066934668
653 2 6.311989177 15.306375 16.366696388
654 2 44.185439177 37.172625 16.366696388
655 2 3.787345 15.306375 23.90043828
656 2 41.660795 37.172625 23.90043828
657 2 5.050045823 17.493 20.133265332
658 2 42.923495823 39.35925 20.133265332
659 2 5.050045823 17.493 26.433631056
660 2 42.923495823 39.35925 26.433631056
661 1 8.837390823 15.306375 2.025829416
662 1 46.710840823 37.172625 2.025829416
663 1 8.837390823 15.306375 8.041105252
664 1 46.710840823 37.172625 8.041105252
665 1 7.57469 13.11975 12.09216008
666 1 45.44814 34.986 12.09216008
667 1 7.57469 13.11975 18.10803992
668 1 45.44814 34.986 18.10803992
669 1 10.099334177 13.11975 22.159094748
670 1 47.972784177 34.986 22.159094748
671 1 10.099334177 13.11975 28.174370584
672 1 47.972784177 34.986 28.174370584
673 2 10.099334177 13.11975 3.766568944
674 2 47.972784177 34.986 3.766568944
675 2 7.57469 13.11975 0.0
676 2 45.44814 34.986 0.0
677 2 7.57469 13.11975 6.29976172
678 2 45.44814 34.986 6.29976172
679 2 8.837390823 15.306375 13.833503612
680 2 46.710840823 37.172625 13.833503612
681 2 10.099334177 13.11975 10.066934668
682 2 47.972784177 34.986 10.066934668
683 2 10.099334177 13.11975 16.366696388
684 2 47.972784177 34.986 16.366696388
685 2 7.57469 13.11975 23.90043828
686 2 45.44814 34.986 23.90043828
687 2 8.837390823 15.306375 20.133265332
688 2 46.710840823 37.172625 20.133265332
689 2 8.837390823 15.306375 26.433631056
690 2 46.710840823 37.172625 26.433631056
691 1 12.624735823 13.11975 2.025829416
692 1 50.498185823 34.986 2.025829416
693 1 12.624735823 13.11975 8.041105252
694 1 50.498185823 34.986 8.041105252
695 1 11.362035 10.933125 12.09216008
696 1 49.235485 32.799375 12.09216008
697 1 11.362035 10.933125 18.10803992
698 1 49.235485 32.799375 18.10803992
699 1 13.886679177 10.933125 22.159094748
700 1 51.760129177 32.799375 22.159094748
701 1 13.886679177 10.933125 28.174370584
702 1 51.760129177 32.799375 28.174370584
703 2 13.886679177 10.933125 3.766568944
704 2 51.760129177 32.799375 3.766568944
705 2 11.362035 10.933125 0.0
706 2 49.235485 32.799375 0.0
707 2 11.362035 10.933125 6.29976172
708 2 49.235485 32.799375 6.29976172
709 2 12.624735823 13.11975 13.833503612
710 2 50.498185823 34.986 13.833503612
711 2 13.886679177 10.933125 10.066934668
712 2 51.760129177 32.799375 10.066934668
713 2 13.886679177 10.933125 16.366696388
714 2 51.760129177 32.799375 16.366696388
715 2 11.362035 10.933125 23.90043828
716 2 49.235485 32.799375 23.90043828
717 2 12.624735823 13.11975 20.133265332
718 2 50.498185823 34.986 20.133265332
719 2 12.624735823 13.11975 26.433631056
720 2 50.498185823 34.986 26.433631056
721 1 16.412080823 10.933125 2.025829416
722 1 54.285530823 32.799375 2.025829416
723 1 16.412080823 10.933125 8.041105252
724 1 54.285530823 32.799375 8.041105252
725 1 15.14938 8.7465 12.09216008
726 1 53.02283 30.61275 12.09216008
727 1 15.14938 8.7465 18.10803992
728 1 53.02283 30.61275 18.10803992
729 1 17.674024177 8.7465 22.159094748
730 1 55.547474177 30.61275 22.159094748
731 1 17.674024177 8.7465 28.174370584
732 1 55.547474177 30.61275 28.174370584
733 2 17.674024177 8.7465 3.766568944
734 2 55.547474177 30.61275 3.766568944
735 2 15.14938 8.7465 0.0
736 2 53.02283 30.61275 0.0
737 2 15.14938 8.7465 6.29976172
738 2 53.02283 30.61275 6.29976172
739 2 16.412080823 10.933125 13.833503612
740 2 54.285530823 32.799375 13.833503612
741 2 17.674024177 8.7465 10.066934668
742 2 55.547474177 30.61275 10.066934668
743 2 17.674024177 8.7465 16.366696388
744 2 55.547474177 30.61275 16.366696388
745 2 15.14938 8.7465 23.90043828
746 2 53.02283 30.61275 23.90043828
747 2 16.412080823 10.933125 20.133265332
748 2 54.285530823 32.799375 20.133265332
749 2 16.412080823 10.933125 26.433631056
750 2 54.285530823 32.799375 26.433631056
751 1 1.262700823 2.186625 32.226029416
752 1 39.136150823 24.052875 32.226029416
753 1 1.262700823 2.186625 38.241305252
754 1 39.136150823 24.052875 38.241305252
755 2 0.0 0.0 42.29236008
756 1 37.87345 21.86625 42.29236008
757 1 0.0 0.0 48.30823992
758 1 37.87345 21.86625 48.30823992
759 1 2.524644177 0.0 52.359294748
760 1 40.398094177 21.86625 52.359294748
761 1 2.524644177 0.0 58.374570584
762 1 40.398094177 21.86625 58.374570584
763 2 2.524644177 0.0 33.966768944
764 2 40.398094177 21.86625 33.966768944
765 2 0.0 0.0 30.2002
766 2 37.87345 21.86625 30.2002
767 2 0.0 0.0 36.49996172
768 2 37.87345 21.86625 36.49996172