
15 atoms
2 atom types
   0.0000000000    4.2839774170 xlo xhi
   0.0000000000    3.7100332719 ylo yhi
   0.0000000000   29.5837119548 zlo zhi
  -2.1419892730   -0.0000000001   -0.0000000001 xy xz yz

Atoms # atomic

     1      1   -0.0000025183    2.4733567513    1.9843126875
     2      1   -0.0000025183    2.4733567513    7.8769295614
     3      1    0.0000000157    0.0000000367   11.8455549364
     4      1    0.0000000239    0.0000000319   17.7381570184
     5      1    2.1419906622    1.2366765205   21.7067823934
     6      1    2.1419906622    1.2366765204   27.5994140592
     7      2    2.1419906623    1.2366765206    3.6899172247
     8      2    0.0000000241    0.0000000417    0.0000001882
     9      2    0.0000000162    0.0000000381    6.1713102323
    10      2   -0.0000025184    2.4733567512   13.5511742655
    11      2    2.1419906622    1.2366765205    9.8612274570
    12      2    2.1419906622    1.2366765205   16.0325376894
    13      2    0.0000000248    0.0000000330   23.4124017225
    14      2   -0.0000025184    2.4733567512   19.7224844978
    15      2   -0.0000025184    2.4733567512   25.8937947301
