
15 atoms
2 atom types
   0.0000000000    4.2533765337 xlo xhi
   0.0000000000    3.6835321296 ylo yhi
   0.0000000000   29.3723925129 zlo zhi
  -2.1266888273   -0.0000000001   -0.0000000001 xy xz yz

Atoms # atomic

     1      1   -0.0000025003    2.4556893142    1.9701385416
     2      1   -0.0000025003    2.4556893142    7.8206638581
     3      1    0.0000000156    0.0000000365   11.7609409413
     4      1    0.0000000237    0.0000000317   17.6114515715
     5      1    2.1266902066    1.2278428153   21.5517286547
     6      1    2.1266902066    1.2278428152   27.4022686575
     7      2    2.1266902067    1.2278428154    3.6635597733
     8      2    0.0000000239    0.0000000414    0.0000001868
     9      2    0.0000000160    0.0000000378    6.1272279401
    10      2   -0.0000025004    2.4556893141   13.4543768593
    11      2    2.1266902066    1.2278428153    9.7907877135
    12      2    2.1266902066    1.2278428153   15.9180156537
    13      2    0.0000000246    0.0000000328   23.2451645727
    14      2   -0.0000025004    2.4556893141   19.5816047994
    15      2   -0.0000025004    2.4556893141   25.7088327395
