
15 atoms
2 atom types
   0.0000000000    4.3732525185 xlo xhi
   0.0000000000    3.7873477777 ylo yhi
   0.0000000000   30.1987058300 zlo zhi
  -2.1866268355   -0.3020021589   -0.0000000001 xy xz yz

Atoms # atomic

     1      1   -0.0202592146    2.5248997809    2.0255630941
     2      1   -0.0804133636    2.5248997809    8.0406772156
     3      1   -0.1209240644    0.0000000375   12.0918034040
     4      1   -0.1810780540    0.0000000326   18.1069024260
     5      1    1.9650368877    1.2624479967   22.1580286144
     6      1    1.9048825877    1.2624479966   28.1731578352
     7      2    2.1489601285    1.2624479968    3.7666241808
     8      2    0.0000000227    0.0000000426    0.0000001921
     9      2   -0.0629991438    0.0000000389    6.2996010296
    10      2   -0.1383382838    2.5248997808   13.8328795899
    11      2    2.0859609681    1.2624479967   10.0662252104
    12      2    2.0229618078    1.2624479967   16.3658262401
    13      2   -0.2390029732    0.0000000337   23.8991048003
    14      2   -0.2013374441    2.5248997808   20.1324806196
    15      2   -0.2643366044    2.5248997808   26.4320816492
