
15 atoms
2 atom types
   0.0000000000    4.3732525185 xlo xhi
   0.0000000000    3.7871584055 ylo yhi
   0.0000000000   30.2002158785 zlo zhi
  -2.1487533577   -0.0000000001   -0.0000000001 xy xz yz

Atoms # atomic

     1      1    0.0252464270    2.5247735328    2.0256643799
     2      1    0.0252464270    2.5247735328    8.0410792796
     3      1    0.0000000164    0.0000000375   12.0924080395
     4      1    0.0000000247    0.0000000326   18.1078078390
     5      1    2.1992527337    1.2623848727   22.1591365989
     6      1    2.1992527337    1.2623848726   28.1745665987
     7      2    2.1992527338    1.2623848728    3.7668125261
     8      2    0.0000000250    0.0000000426    0.0000001921
     9      2    0.0000000169    0.0000000389    6.2999160333
    10      2    0.0252464269    2.5247735327   13.8335712858
    11      2    2.1992527337    1.2623848727   10.0667285594
    12      2    2.1992527337    1.2623848727   16.3666445928
    13      2    0.0000000256    0.0000000337   23.9002998452
    14      2    0.0252464269    2.5247735327   20.1334873191
    15      2    0.0252464269    2.5247735327   26.4334033524
