
15 atoms
2 atom types
   0.0000000000    4.3732525185 xlo xhi
   0.0000000000    3.7873477777 ylo yhi
   0.0000000000   30.0488353971 zlo zhi
  -2.1866268355   -0.0000000001   -0.0000000001 xy xz yz

Atoms # atomic

     1      1   -0.0000025708    2.5248997809    2.0155106098
     2      1   -0.0000025708    2.5248997809    8.0007728640
     3      1    0.0000000160    0.0000000375   12.0317940837
     4      1    0.0000000244    0.0000000326   18.0170413133
     5      1    2.1866282537    1.2624479967   22.0480625330
     6      1    2.1866282537    1.2624479966   28.0333398116
     7      2    2.1866282538    1.2624479968    3.7479311414
     8      2    0.0000000246    0.0000000426    0.0000001911
     9      2    0.0000000165    0.0000000389    6.2683373080
    10      2   -0.0000025709    2.5248997808   13.7642296397
    11      2    2.1866282537    1.2624479967   10.0162684494
    12      2    2.1866282537    1.2624479967   16.2846057574
    13      2    0.0000000253    0.0000000337   23.7804980891
    14      2   -0.0000025709    2.5248997808   20.0325669476
    15      2   -0.0000025709    2.5248997808   26.3009042556
