
15 atoms
2 atom types
   0.0000000000    4.3732525185 xlo xhi
   0.0000000000    3.7873477777 ylo yhi
   0.0000000000   30.1987058300 zlo zhi
  -2.1866268355   -0.0000000001    0.3020021586 xy xz yz

Atoms # atomic

     1      1   -0.0000025708    2.5451564247    2.0255630941
     2      1   -0.0000025708    2.6053105737    8.0406772156
     3      1    0.0000000160    0.1209241179   12.0918034040
     4      1    0.0000000244    0.1810781110   18.1069024260
     5      1    2.1866282537    1.4840393627   22.1580286144
     6      1    2.1866282537    1.5441936626   28.1731578352
     7      2    2.1866282538    1.3001161221    3.7666241808
     8      2    0.0000000246    0.0000000445    0.0000001921
     9      2    0.0000000165    0.0629991992    6.2996010296
    10      2   -0.0000025709    2.6632354937   13.8328795899
    11      2    2.1866282537    1.3631152823   10.0662252104
    12      2    2.1866282537    1.4261144426   16.3658262401
    13      2    0.0000000253    0.2390030322   23.8991048003
    14      2   -0.0000025709    2.7262346540   20.1324806196
    15      2   -0.0000025709    2.7892338143   26.4320816492
