
15 atoms
2 atom types
   0.0000000000    4.5006998838 xlo xhi
   0.0000000000    3.8977204337 ylo yhi
   0.0000000000   31.0803246602 zlo zhi
  -2.2503505350   -0.0000000001   -0.0000000001 xy xz yz

Atoms # atomic

     1      1   -0.0000026457    2.5984815884    2.0846972364
     2      1   -0.0000026457    2.5984815884    8.2754161637
     3      1    0.0000000165    0.0000000386   12.4448106366
     4      1    0.0000000251    0.0000000336   18.6355140236
     5      1    2.2503519945    1.2992388452   22.8049084965
     6      1    2.2503519945    1.2992388451   28.9956429640
     7      2    2.2503519946    1.2992388453    3.8765867342
     8      2    0.0000000253    0.0000000438    0.0000001977
     9      2    0.0000000170    0.0000000400    6.4835111257
    10      2   -0.0000026458    2.5984815883   14.2367156746
    11      2    2.2503519945    1.2992388452   10.3600978599
    12      2    2.2503519945    1.2992388452   16.8436089857
    13      2    0.0000000260    0.0000000347   24.5968135345
    14      2   -0.0000026458    2.5984815883   20.7202268003
    15      2   -0.0000026458    2.5984815883   27.2037379260
