
15 atoms
2 atom types
   0.0000000000    4.4590243435 xlo xhi
   0.0000000000    3.8616283571 ylo yhi
   0.0000000000   30.7925273497 zlo zhi
  -2.2295127593   -0.0000000001   -0.0000000001 xy xz yz

Atoms # atomic

     1      1   -0.0000026212    2.5744201919    2.0653933757
     2      1   -0.0000026212    2.5744201919    8.1987875396
     3      1    0.0000000163    0.0000000382   12.3295742910
     4      1    0.0000000249    0.0000000332   18.4629530586
     5      1    2.2295142053    1.2872081651   22.5937398100
     6      1    2.2295142053    1.2872081650   28.7271493702
     7      2    2.2295142054    1.2872081652    3.8406903513
     8      2    0.0000000251    0.0000000434    0.0000001959
     9      2    0.0000000168    0.0000000397    6.4234751677
    10      2   -0.0000026213    2.5744201918   14.1048866629
    11      2    2.2295142053    1.2872081651   10.2641655190
    12      2    2.2295142053    1.2872081651   16.6876406868
    13      2    0.0000000258    0.0000000344   24.3690521819
    14      2   -0.0000026213    2.5744201918   20.5283618306
    15      2   -0.0000026213    2.5744201918   26.9518369984
