
15 atoms
2 atom types
   0.0000000000    4.4730025677 xlo xhi
   0.0000000000    3.8737338543 ylo yhi
   0.0000000000   30.8890562800 zlo zhi
  -2.2365018733   -0.0000000001   -0.0000000001 xy xz yz

Atoms # atomic

     1      1   -0.0000026294    2.5824905275    2.0718680054
     2      1   -0.0000026294    2.5824905275    8.2244892360
     3      1    0.0000000164    0.0000000384   12.3682252470
     4      1    0.0000000250    0.0000000333   18.5208310330
     5      1    2.2365033238    1.2912433268   22.6645670439
     6      1    2.2365033238    1.2912433267   28.8172037191
     7      2    2.2365033239    1.2912433269    3.8527302117
     8      2    0.0000000252    0.0000000436    0.0000001965
     9      2    0.0000000169    0.0000000398    6.4436115852
    10      2   -0.0000026295    2.5824905274   14.1491028978
    11      2    2.2365033238    1.2912433268   10.2963417969
    12      2    2.2365033238    1.2912433268   16.7399533823
    13      2    0.0000000259    0.0000000345   24.4454446947
    14      2   -0.0000026295    2.5824905274   20.5927144830
    15      2   -0.0000026295    2.5824905274   27.0363260683
