
15 atoms
2 atom types
   0.0000000000    4.2223288828 xlo xhi
   0.0000000000    3.6566440752 ylo yhi
   0.0000000000   29.1579878435 zlo zhi
  -2.1111649978   -0.0000000001   -0.0000000001 xy xz yz

Atoms # atomic

     1      1   -0.0000024821    2.4377639357    1.9557574556
     2      1   -0.0000024821    2.4377639357    7.7635766852
     3      1    0.0000000154    0.0000000362   11.6750915965
     4      1    0.0000000236    0.0000000315   17.4828962470
     5      1    2.1111663670    1.2188801394   21.3944111583
     6      1    2.1111663670    1.2188801393   27.2022449669
     7      2    2.1111663671    1.2188801395    3.6368175077
     8      2    0.0000000238    0.0000000411    0.0000001855
     9      2    0.0000000159    0.0000000376    6.0825020541
    10      2   -0.0000024822    2.4377639356   13.3561662276
    11      2    2.1111663670    1.2188801394    9.7193195618
    12      2    2.1111663670    1.2188801394   15.8018216160
    13      2    0.0000000244    0.0000000325   23.0754857894
    14      2   -0.0000024822    2.4377639356   19.4386682817
    15      2   -0.0000024822    2.4377639356   25.5211703357
